3
* (null), Energy   -1000.0000000
O    -3.939131   -0.058102    0.018504   -0.099298    0.094248   -0.030016
H    -2.983028    0.049039   -0.015618    0.175601   -1.333738    0.424771
H    -4.047991   -0.969487    0.308764    1.400453   -0.162163    0.051646
3
* Frequency(6) 1642.8584
O    -3.950416   -0.047391    0.015093   -0.099298    0.094248   -0.030016
H    -2.963072   -0.102534    0.032655    0.175601   -1.333738    0.424771
H    -3.888836   -0.987916    0.314633    1.400453   -0.162163    0.051646
3
* Frequency(6) 1642.8584
O    -3.960478   -0.037841    0.012052   -0.099298    0.094248   -0.030016
H    -2.945278   -0.237681    0.075697    0.175601   -1.333738    0.424771
H    -3.746929   -1.004348    0.319866    1.400453   -0.162163    0.051646
3
* Frequency(6) 1642.8584
O    -3.968226   -0.030486    0.009709   -0.099298    0.094248   -0.030016
H    -2.931575   -0.341757    0.108843    0.175601   -1.333738    0.424771
H    -3.637646   -1.017002    0.323896    1.400453   -0.162163    0.051646
3
* Frequency(6) 1642.8584
O    -3.972822   -0.026125    0.008320   -0.099298    0.094248   -0.030016
H    -2.923448   -0.403485    0.128503    0.175601   -1.333738    0.424771
H    -3.572831   -1.024507    0.326287    1.400453   -0.162163    0.051646
3
* Frequency(6) 1642.8584
O    -3.973767   -0.025228    0.008035   -0.099298    0.094248   -0.030016
H    -2.921778   -0.416175    0.132544    0.175601   -1.333738    0.424771
H    -3.559506   -1.026050    0.326778    1.400453   -0.162163    0.051646
3
* Frequency(6) 1642.8584
O    -3.970958   -0.027894    0.008884   -0.099298    0.094248   -0.030016
H    -2.926744   -0.378452    0.120530    0.175601   -1.333738    0.424771
H    -3.599116   -1.021464    0.325317    1.400453   -0.162163    0.051646
3
* Frequency(6) 1642.8584
O    -3.964701   -0.033833    0.010775   -0.099298    0.094248   -0.030016
H    -2.937810   -0.294403    0.093762    0.175601   -1.333738    0.424771
H    -3.687369   -1.011244    0.322063    1.400453   -0.162163    0.051646
3
* Frequency(6) 1642.8584
O    -3.955673   -0.042402    0.013504   -0.099298    0.094248   -0.030016
H    -2.953776   -0.173137    0.055141    0.175601   -1.333738    0.424771
H    -3.814701   -0.996500    0.317367    1.400453   -0.162163    0.051646
3
* Frequency(6) 1642.8584
O    -3.944852   -0.052672    0.016775   -0.099298    0.094248   -0.030016
H    -2.972912   -0.027795    0.008852    0.175601   -1.333738    0.424771
H    -3.967313   -0.978829    0.311739    1.400453   -0.162163    0.051646
3
* Frequency(6) 1642.8584
O    -3.933411   -0.063531    0.020234   -0.099298    0.094248   -0.030016
H    -2.993144    0.125873   -0.040088    0.175601   -1.333738    0.424771
H    -4.128668   -0.960145    0.305788    1.400453   -0.162163    0.051646
3
* Frequency(6) 1642.8584
O    -3.922590   -0.073802    0.023504   -0.099298    0.094248   -0.030016
H    -3.012280    0.271215   -0.086377    0.175601   -1.333738    0.424771
H    -4.281280   -0.942474    0.300160    1.400453   -0.162163    0.051646
3
* Frequency(6) 1642.8584
O    -3.913562   -0.082371    0.026234   -0.099298    0.094248   -0.030016
H    -3.028246    0.392481   -0.124998    0.175601   -1.333738    0.424771
H    -4.408612   -0.927729    0.295465    1.400453   -0.162163    0.051646
3
* Frequency(6) 1642.8584
O    -3.907305   -0.088310    0.028125   -0.099298    0.094248   -0.030016
H    -3.039312    0.476529   -0.151766    0.175601   -1.333738    0.424771
H    -4.496865   -0.917510    0.292210    1.400453   -0.162163    0.051646
3
* Frequency(6) 1642.8584
O    -3.904496   -0.090976    0.028974   -0.099298    0.094248   -0.030016
H    -3.044278    0.514253   -0.163780    0.175601   -1.333738    0.424771
H    -4.536475   -0.912924    0.290749    1.400453   -0.162163    0.051646
3
* Frequency(6) 1642.8584
O    -3.905441   -0.090079    0.028689   -0.099298    0.094248   -0.030016
H    -3.042608    0.501563   -0.159738    0.175601   -1.333738    0.424771
H    -4.523151   -0.914467    0.291241    1.400453   -0.162163    0.051646
3
* Frequency(6) 1642.8584
O    -3.910036   -0.085717    0.027299   -0.099298    0.094248   -0.030016
H    -3.034480    0.439835   -0.140079    0.175601   -1.333738    0.424771
H    -4.458335   -0.921972    0.293631    1.400453   -0.162163    0.051646
3
* Frequency(6) 1642.8584
O    -3.917785   -0.078363    0.024957   -0.099298    0.094248   -0.030016
H    -3.020778    0.335758   -0.106933    0.175601   -1.333738    0.424771
H    -4.349052   -0.934626    0.297661    1.400453   -0.162163    0.051646
3
* Frequency(6) 1642.8584
O    -3.927847   -0.068813    0.021916   -0.099298    0.094248   -0.030016
H    -3.002984    0.200611   -0.063891    0.175601   -1.333738    0.424771
H    -4.207145   -0.951058    0.302894    1.400453   -0.162163    0.051646
3
* Frequency(6) 1642.8584
O    -3.939131   -0.058102    0.018504   -0.099298    0.094248   -0.030016
H    -2.983028    0.049039   -0.015618    0.175601   -1.333738    0.424771
H    -4.047991   -0.969487    0.308764    1.400453   -0.162163    0.051646
