8
* (null), Energy   -1000.0000000
C    -8.211736    1.728101   -0.008013   -0.000608    0.014176   -0.100622
C    -6.782866    2.213722    0.039075   -0.003063    0.008240   -0.053766
H    -8.277104    0.642209   -0.150979    0.008096   -0.188083    1.428449
H    -8.734844    2.246734   -0.825990    0.409278    0.858875    0.201634
H    -8.713867    2.014836    0.929061   -0.394235   -0.899626   -0.006605
O    -6.446204    3.361473    0.189749    0.000456   -0.001601    0.010433
O    -5.892435    1.209722   -0.107978    0.000729   -0.000665    0.003585
H    -5.009163    1.617144   -0.064925    0.001797   -0.002298   -0.006341
8
* Frequency(17) 1448.9272
C    -8.211806    1.729712   -0.019448   -0.000608    0.014176   -0.100622
C    -6.783214    2.214659    0.032965   -0.003063    0.008240   -0.053766
H    -8.276184    0.620834    0.011357    0.008096   -0.188083    1.428449
H    -8.688331    2.344340   -0.803075    0.409278    0.858875    0.201634
H    -8.758670    1.912598    0.928311   -0.394235   -0.899626   -0.006605
O    -6.446152    3.361291    0.190935    0.000456   -0.001601    0.010433
O    -5.892353    1.209646   -0.107571    0.000729   -0.000665    0.003585
H    -5.008959    1.616883   -0.065646    0.001797   -0.002298   -0.006341
8
* Frequency(17) 1448.9272
C    -8.211867    1.731148   -0.029644   -0.000608    0.014176   -0.100622
C    -6.783524    2.215494    0.027517   -0.003063    0.008240   -0.053766
H    -8.275364    0.601776    0.156101    0.008096   -0.188083    1.428449
H    -8.646859    2.431370   -0.782644    0.409278    0.858875    0.201634
H    -8.798618    1.821439    0.927642   -0.394235   -0.899626   -0.006605
O    -6.446106    3.361128    0.191992    0.000456   -0.001601    0.010433
O    -5.892279    1.209579   -0.107208    0.000729   -0.000665    0.003585
H    -5.008777    1.616650   -0.066288    0.001797   -0.002298   -0.006341
8
* Frequency(17) 1448.9272
C    -8.211915    1.732254   -0.037496   -0.000608    0.014176   -0.100622
C    -6.783763    2.216137    0.023321   -0.003063    0.008240   -0.053766
H    -8.274732    0.587099    0.267569    0.008096   -0.188083    1.428449
H    -8.614922    2.498391   -0.766910    0.409278    0.858875    0.201634
H    -8.829381    1.751238    0.927126   -0.394235   -0.899626   -0.006605
O    -6.446070    3.361004    0.192806    0.000456   -0.001601    0.010433
O    -5.892222    1.209527   -0.106928    0.000729   -0.000665    0.003585
H    -5.008637    1.616471   -0.066783    0.001797   -0.002298   -0.006341
8
* Frequency(17) 1448.9272
C    -8.211943    1.732910   -0.042153   -0.000608    0.014176   -0.100622
C    -6.783905    2.216518    0.020833   -0.003063    0.008240   -0.053766
H    -8.274357    0.578394    0.333680    0.008096   -0.188083    1.428449
H    -8.595980    2.538142   -0.757578    0.409278    0.858875    0.201634
H    -8.847627    1.709601    0.926820   -0.394235   -0.899626   -0.006605
O    -6.446049    3.360929    0.193289    0.000456   -0.001601    0.010433
O    -5.892188    1.209496   -0.106762    0.000729   -0.000665    0.003585
H    -5.008554    1.616364   -0.067076    0.001797   -0.002298   -0.006341
8
* Frequency(17) 1448.9272
C    -8.211949    1.733045   -0.043111   -0.000608    0.014176   -0.100622
C    -6.783934    2.216596    0.020321   -0.003063    0.008240   -0.053766
H    -8.274280    0.576605    0.347271    0.008096   -0.188083    1.428449
H    -8.592085    2.546313   -0.755659    0.409278    0.858875    0.201634
H    -8.851378    1.701042    0.926758   -0.394235   -0.899626   -0.006605
O    -6.446045    3.360914    0.193388    0.000456   -0.001601    0.010433
O    -5.892181    1.209490   -0.106728    0.000729   -0.000665    0.003585
H    -5.008537    1.616343   -0.067137    0.001797   -0.002298   -0.006341
8
* Frequency(17) 1448.9272
C    -8.211931    1.732644   -0.040265   -0.000608    0.014176   -0.100622
C    -6.783847    2.216363    0.021842   -0.003063    0.008240   -0.053766
H    -8.274509    0.581925    0.306869    0.008096   -0.188083    1.428449
H    -8.603661    2.522021   -0.761362    0.409278    0.858875    0.201634
H    -8.840228    1.726487    0.926944   -0.394235   -0.899626   -0.006605
O    -6.446058    3.360959    0.193093    0.000456   -0.001601    0.010433
O    -5.892202    1.209509   -0.106829    0.000729   -0.000665    0.003585
H    -5.008587    1.616408   -0.066957    0.001797   -0.002298   -0.006341
8
* Frequency(17) 1448.9272
C    -8.211893    1.731751   -0.033924   -0.000608    0.014176   -0.100622
C    -6.783654    2.215844    0.025230   -0.003063    0.008240   -0.053766
H    -8.275020    0.593777    0.216852    0.008096   -0.188083    1.428449
H    -8.629453    2.467897   -0.774069    0.409278    0.858875    0.201634
H    -8.815384    1.783179    0.927361   -0.394235   -0.899626   -0.006605
O    -6.446087    3.361060    0.192436    0.000456   -0.001601    0.010433
O    -5.892248    1.209551   -0.107055    0.000729   -0.000665    0.003585
H    -5.008701    1.616552   -0.066558    0.001797   -0.002298   -0.006341
8
* Frequency(17) 1448.9272
C    -8.211838    1.730462   -0.024775   -0.000608    0.014176   -0.100622
C    -6.783376    2.215095    0.030119   -0.003063    0.008240   -0.053766
H    -8.275756    0.610878    0.086975    0.008096   -0.188083    1.428449
H    -8.666665    2.389807   -0.792402    0.409278    0.858875    0.201634
H    -8.779539    1.864975    0.927961   -0.394235   -0.899626   -0.006605
O    -6.446128    3.361206    0.191487    0.000456   -0.001601    0.010433
O    -5.892314    1.209611   -0.107381    0.000729   -0.000665    0.003585
H    -5.008864    1.616761   -0.065981    0.001797   -0.002298   -0.006341
8
* Frequency(17) 1448.9272
C    -8.211771    1.728917   -0.013810   -0.000608    0.014176   -0.100622
C    -6.783042    2.214197    0.035978   -0.003063    0.008240   -0.053766
H    -8.276638    0.631374   -0.068689    0.008096   -0.188083    1.428449
H    -8.711266    2.296212   -0.814374    0.409278    0.858875    0.201634
H    -8.736578    1.963010    0.928681   -0.394235   -0.899626   -0.006605
O    -6.446178    3.361380    0.190350    0.000456   -0.001601    0.010433
O    -5.892393    1.209684   -0.107772    0.000729   -0.000665    0.003585
H    -5.009060    1.617012   -0.065290    0.001797   -0.002298   -0.006341
8
* Frequency(17) 1448.9272
C    -8.211701    1.727284   -0.002216   -0.000608    0.014176   -0.100622
C    -6.782689    2.213247    0.042172   -0.003063    0.008240   -0.053766
H    -8.277571    0.653044   -0.233269    0.008096   -0.188083    1.428449
H    -8.758421    2.197256   -0.837606    0.409278    0.858875    0.201634
H    -8.691156    2.066662    0.929442   -0.394235   -0.899626   -0.006605
O    -6.446230    3.361565    0.189148    0.000456   -0.001601    0.010433
O    -5.892477    1.209760   -0.108185    0.000729   -0.000665    0.003585
H    -5.009267    1.617277   -0.064560    0.001797   -0.002298   -0.006341
8
* Frequency(17) 1448.9272
C    -8.211635    1.725739    0.008749   -0.000608    0.014176   -0.100622
C    -6.782355    2.212349    0.048031   -0.003063    0.008240   -0.053766
H    -8.278453    0.673540   -0.388932    0.008096   -0.188083    1.428449
H    -8.803022    2.103661   -0.859579    0.409278    0.858875    0.201634
H    -8.648195    2.164697    0.930162   -0.394235   -0.899626   -0.006605
O    -6.446280    3.361739    0.188011    0.000456   -0.001601    0.010433
O    -5.892557    1.209833   -0.108576    0.000729   -0.000665    0.003585
H    -5.009463    1.617527   -0.063869    0.001797   -0.002298   -0.006341
8
* Frequency(17) 1448.9272
C    -8.211580    1.724451    0.017897   -0.000608    0.014176   -0.100622
C    -6.782077    2.211600    0.052920   -0.003063    0.008240   -0.053766
H    -8.279189    0.690641   -0.518809    0.008096   -0.188083    1.428449
H    -8.840234    2.025571   -0.877911    0.409278    0.858875    0.201634
H    -8.612350    2.246493    0.930762   -0.394235   -0.899626   -0.006605
O    -6.446321    3.361885    0.187062    0.000456   -0.001601    0.010433
O    -5.892623    1.209893   -0.108901    0.000729   -0.000665    0.003585
H    -5.009626    1.617736   -0.063292    0.001797   -0.002298   -0.006341
8
* Frequency(17) 1448.9272
C    -8.211541    1.723557    0.024238   -0.000608    0.014176   -0.100622
C    -6.781884    2.211081    0.056308   -0.003063    0.008240   -0.053766
H    -8.279699    0.702493   -0.608826    0.008096   -0.188083    1.428449
H    -8.866026    1.971447   -0.890618    0.409278    0.858875    0.201634
H    -8.587507    2.303185    0.931179   -0.394235   -0.899626   -0.006605
O    -6.446350    3.361986    0.186405    0.000456   -0.001601    0.010433
O    -5.892669    1.209935   -0.109127    0.000729   -0.000665    0.003585
H    -5.009739    1.617881   -0.062893    0.001797   -0.002298   -0.006341
8
* Frequency(17) 1448.9272
C    -8.211524    1.723156    0.027084   -0.000608    0.014176   -0.100622
C    -6.781797    2.210848    0.057829   -0.003063    0.008240   -0.053766
H    -8.279928    0.707813   -0.649229    0.008096   -0.188083    1.428449
H    -8.877602    1.947154   -0.896321    0.409278    0.858875    0.201634
H    -8.576356    2.328630    0.931365   -0.394235   -0.899626   -0.006605
O    -6.446363    3.362031    0.186110    0.000456   -0.001601    0.010433
O    -5.892690    1.209954   -0.109229    0.000729   -0.000665    0.003585
H    -5.009790    1.617946   -0.062713    0.001797   -0.002298   -0.006341
8
* Frequency(17) 1448.9272
C    -8.211530    1.723291    0.026127   -0.000608    0.014176   -0.100622
C    -6.781827    2.210926    0.057317   -0.003063    0.008240   -0.053766
H    -8.279851    0.706023   -0.635638    0.008096   -0.188083    1.428449
H    -8.873708    1.955326   -0.894402    0.409278    0.858875    0.201634
H    -8.580107    2.320070    0.931303   -0.394235   -0.899626   -0.006605
O    -6.446359    3.362016    0.186209    0.000456   -0.001601    0.010433
O    -5.892683    1.209948   -0.109195    0.000729   -0.000665    0.003585
H    -5.009773    1.617924   -0.062774    0.001797   -0.002298   -0.006341
8
* Frequency(17) 1448.9272
C    -8.211558    1.723947    0.021470   -0.000608    0.014176   -0.100622
C    -6.781968    2.211308    0.054829   -0.003063    0.008240   -0.053766
H    -8.279477    0.697319   -0.569526    0.008096   -0.188083    1.428449
H    -8.854765    1.995076   -0.885070    0.409278    0.858875    0.201634
H    -8.598353    2.278434    0.930997   -0.394235   -0.899626   -0.006605
O    -6.446338    3.361942    0.186692    0.000456   -0.001601    0.010433
O    -5.892649    1.209917   -0.109029    0.000729   -0.000665    0.003585
H    -5.009690    1.617818   -0.063067    0.001797   -0.002298   -0.006341
8
* Frequency(17) 1448.9272
C    -8.211606    1.725053    0.013618   -0.000608    0.014176   -0.100622
C    -6.782207    2.211951    0.050633   -0.003063    0.008240   -0.053766
H    -8.278845    0.682642   -0.458059    0.008096   -0.188083    1.428449
H    -8.822828    2.062098   -0.869336    0.409278    0.858875    0.201634
H    -8.629117    2.208233    0.930481   -0.394235   -0.899626   -0.006605
O    -6.446302    3.361817    0.187506    0.000456   -0.001601    0.010433
O    -5.892592    1.209865   -0.108749    0.000729   -0.000665    0.003585
H    -5.009550    1.617638   -0.063562    0.001797   -0.002298   -0.006341
8
* Frequency(17) 1448.9272
C    -8.211667    1.726490    0.003422   -0.000608    0.014176   -0.100622
C    -6.782518    2.212786    0.045185   -0.003063    0.008240   -0.053766
H    -8.278024    0.663583   -0.313315    0.008096   -0.188083    1.428449
H    -8.781356    2.149127   -0.848905    0.409278    0.858875    0.201634
H    -8.669064    2.117074    0.929812   -0.394235   -0.899626   -0.006605
O    -6.446256    3.361655    0.188563    0.000456   -0.001601    0.010433
O    -5.892518    1.209797   -0.108386    0.000729   -0.000665    0.003585
H    -5.009368    1.617405   -0.064205    0.001797   -0.002298   -0.006341
8
* Frequency(17) 1448.9272
C    -8.211736    1.728101   -0.008013   -0.000608    0.014176   -0.100622
C    -6.782866    2.213722    0.039075   -0.003063    0.008240   -0.053766
H    -8.277104    0.642209   -0.150979    0.008096   -0.188083    1.428449
H    -8.734844    2.246734   -0.825990    0.409278    0.858875    0.201634
H    -8.713867    2.014836    0.929061   -0.394235   -0.899626   -0.006605
O    -6.446204    3.361473    0.189749    0.000456   -0.001601    0.010433
O    -5.892435    1.209722   -0.107978    0.000729   -0.000665    0.003585
H    -5.009163    1.617144   -0.064925    0.001797   -0.002298   -0.006341
