8
* (null), Energy   -1000.0000000
C    -8.211736    1.728101   -0.008013    0.086730   -0.116949   -0.016830
C    -6.782866    2.213722    0.039075   -0.273538    0.131624    0.021152
H    -8.277104    0.642209   -0.150979   -0.193151   -0.084396   -0.008885
H    -8.734844    2.246734   -0.825990    0.256326    0.361398    0.174112
H    -8.713867    2.014836    0.929061    0.255938    0.395974   -0.079799
O    -6.446204    3.361473    0.189749    0.059834    0.197007    0.025882
O    -5.892435    1.209722   -0.107978    0.107768   -0.351758   -0.048727
H    -5.009163    1.617144   -0.064925   -0.753354    1.608372    0.225683
8
* Frequency(14) 1212.9183
C    -8.201880    1.714810   -0.009926    0.086730   -0.116949   -0.016830
C    -6.813952    2.228680    0.041479   -0.273538    0.131624    0.021152
H    -8.299055    0.632618   -0.151989   -0.193151   -0.084396   -0.008885
H    -8.705713    2.287805   -0.806203    0.256326    0.361398    0.174112
H    -8.684781    2.059836    0.919993    0.255938    0.395974   -0.079799
O    -6.439404    3.383861    0.192690    0.059834    0.197007    0.025882
O    -5.880188    1.169746   -0.113516    0.107768   -0.351758   -0.048727
H    -5.094778    1.799927   -0.039277   -0.753354    1.608372    0.225683
8
* Frequency(14) 1212.9183
C    -8.193092    1.702960   -0.011631    0.086730   -0.116949   -0.016830
C    -6.841669    2.242018    0.043622   -0.273538    0.131624    0.021152
H    -8.318627    0.624066   -0.152889   -0.193151   -0.084396   -0.008885
H    -8.679740    2.324425   -0.788560    0.256326    0.361398    0.174112
H    -8.658847    2.099960    0.911907    0.255938    0.395974   -0.079799
O    -6.433341    3.403824    0.195313    0.059834    0.197007    0.025882
O    -5.869268    1.134103   -0.118453    0.107768   -0.351758   -0.048727
H    -5.171115    1.962903   -0.016409   -0.753354    1.608372    0.225683
8
* Frequency(14) 1212.9183
C    -8.186324    1.693834   -0.012945    0.086730   -0.116949   -0.016830
C    -6.863015    2.252289    0.045273   -0.273538    0.131624    0.021152
H    -8.333699    0.617480   -0.153582   -0.193151   -0.084396   -0.008885
H    -8.659738    2.352626   -0.774974    0.256326    0.361398    0.174112
H    -8.638875    2.130859    0.905680    0.255938    0.395974   -0.079799
O    -6.428672    3.419197    0.197333    0.059834    0.197007    0.025882
O    -5.860858    1.106654   -0.122256    0.107768   -0.351758   -0.048727
H    -5.229902    2.088411    0.001202   -0.753354    1.608372    0.225683
8
* Frequency(14) 1212.9183
C    -8.182310    1.688421   -0.013724    0.086730   -0.116949   -0.016830
C    -6.875674    2.258381    0.046252   -0.273538    0.131624    0.021152
H    -8.342639    0.613574   -0.153993   -0.193151   -0.084396   -0.008885
H    -8.647875    2.369352   -0.766916    0.256326    0.361398    0.174112
H    -8.627030    2.149186    0.901987    0.255938    0.395974   -0.079799
O    -6.425903    3.428315    0.198531    0.059834    0.197007    0.025882
O    -5.855871    1.090374   -0.124511    0.107768   -0.351758   -0.048727
H    -5.264769    2.162849    0.011647   -0.753354    1.608372    0.225683
8
* Frequency(14) 1212.9183
C    -8.181484    1.687308   -0.013884    0.086730   -0.116949   -0.016830
C    -6.878277    2.259633    0.046453   -0.273538    0.131624    0.021152
H    -8.344476    0.612771   -0.154078   -0.193151   -0.084396   -0.008885
H    -8.645436    2.372791   -0.765259    0.256326    0.361398    0.174112
H    -8.624595    2.152953    0.901227    0.255938    0.395974   -0.079799
O    -6.425334    3.430190    0.198777    0.059834    0.197007    0.025882
O    -5.854845    1.087027   -0.124975    0.107768   -0.351758   -0.048727
H    -5.271937    2.178152    0.013794   -0.753354    1.608372    0.225683
8
* Frequency(14) 1212.9183
C    -8.183937    1.690616   -0.013408    0.086730   -0.116949   -0.016830
C    -6.870540    2.255910    0.045855   -0.273538    0.131624    0.021152
H    -8.339013    0.615158   -0.153827   -0.193151   -0.084396   -0.008885
H    -8.652686    2.362569   -0.770184    0.256326    0.361398    0.174112
H    -8.631834    2.141754    0.903484    0.255938    0.395974   -0.079799
O    -6.427026    3.424617    0.198045    0.059834    0.197007    0.025882
O    -5.857894    1.096976   -0.123596    0.107768   -0.351758   -0.048727
H    -5.250629    2.132661    0.007411   -0.753354    1.608372    0.225683
8
* Frequency(14) 1212.9183
C    -8.189403    1.697986   -0.012347    0.086730   -0.116949   -0.016830
C    -6.853303    2.247616    0.044522   -0.273538    0.131624    0.021152
H    -8.326841    0.620477   -0.153267   -0.193151   -0.084396   -0.008885
H    -8.668839    2.339795   -0.781156    0.256326    0.361398    0.174112
H    -8.647962    2.116800    0.908513    0.255938    0.395974   -0.079799
O    -6.430797    3.412203    0.196414    0.059834    0.197007    0.025882
O    -5.864685    1.119143   -0.120526    0.107768   -0.351758   -0.048727
H    -5.203155    2.031305   -0.006811   -0.753354    1.608372    0.225683
8
* Frequency(14) 1212.9183
C    -8.197289    1.708619   -0.010817    0.086730   -0.116949   -0.016830
C    -6.828432    2.235648    0.042598   -0.273538    0.131624    0.021152
H    -8.309280    0.628150   -0.152459   -0.193151   -0.084396   -0.008885
H    -8.692144    2.306936   -0.796986    0.256326    0.361398    0.174112
H    -8.671233    2.080798    0.915768    0.255938    0.395974   -0.079799
O    -6.436237    3.394290    0.194060    0.059834    0.197007    0.025882
O    -5.874483    1.151125   -0.116095    0.107768   -0.351758   -0.048727
H    -5.134658    1.885069   -0.027331   -0.753354    1.608372    0.225683
8
* Frequency(14) 1212.9183
C    -8.206740    1.721364   -0.008983    0.086730   -0.116949   -0.016830
C    -6.798624    2.221305    0.040293   -0.273538    0.131624    0.021152
H    -8.288231    0.637347   -0.151491   -0.193151   -0.084396   -0.008885
H    -8.720077    2.267553   -0.815960    0.256326    0.361398    0.174112
H    -8.699123    2.037647    0.924464    0.255938    0.395974   -0.079799
O    -6.442757    3.372822    0.191240    0.059834    0.197007    0.025882
O    -5.886227    1.189458   -0.110785    0.107768   -0.351758   -0.048727
H    -5.052563    1.709799   -0.051924   -0.753354    1.608372    0.225683
8
* Frequency(14) 1212.9183
C    -8.216733    1.734838   -0.007044    0.086730   -0.116949   -0.016830
C    -6.767108    2.206139    0.037856   -0.273538    0.131624    0.021152
H    -8.265977    0.647071   -0.150467   -0.193151   -0.084396   -0.008885
H    -8.749610    2.225914   -0.836020    0.256326    0.361398    0.174112
H    -8.728611    1.992025    0.933659    0.255938    0.395974   -0.079799
O    -6.449651    3.350123    0.188258    0.059834    0.197007    0.025882
O    -5.898644    1.229986   -0.105171    0.107768   -0.351758   -0.048727
H    -4.965764    1.524489   -0.077926   -0.753354    1.608372    0.225683
8
* Frequency(14) 1212.9183
C    -8.226184    1.747582   -0.005209    0.086730   -0.116949   -0.016830
C    -6.737299    2.191796    0.035551   -0.273538    0.131624    0.021152
H    -8.244929    0.656268   -0.149499   -0.193151   -0.084396   -0.008885
H    -8.777543    2.186532   -0.854994    0.256326    0.361398    0.174112
H    -8.756502    1.948874    0.942355    0.255938    0.395974   -0.079799
O    -6.456171    3.328655    0.185438    0.059834    0.197007    0.025882
O    -5.910388    1.268318   -0.099861    0.107768   -0.351758   -0.048727
H    -4.883669    1.349219   -0.102520   -0.753354    1.608372    0.225683
8
* Frequency(14) 1212.9183
C    -8.234070    1.758216   -0.003679    0.086730   -0.116949   -0.016830
C    -6.712429    2.179828    0.033628   -0.273538    0.131624    0.021152
H    -8.227367    0.663941   -0.148691   -0.193151   -0.084396   -0.008885
H    -8.800848    2.153673   -0.870824    0.256326    0.361398    0.174112
H    -8.779772    1.912871    0.949610    0.255938    0.395974   -0.079799
O    -6.461611    3.310743    0.183084    0.059834    0.197007    0.025882
O    -5.920186    1.300301   -0.095431    0.107768   -0.351758   -0.048727
H    -4.815172    1.202983   -0.123039   -0.753354    1.608372    0.225683
8
* Frequency(14) 1212.9183
C    -8.239535    1.765585   -0.002619    0.086730   -0.116949   -0.016830
C    -6.695191    2.171534    0.032295   -0.273538    0.131624    0.021152
H    -8.215196    0.669259   -0.148131   -0.193151   -0.084396   -0.008885
H    -8.817001    2.130898   -0.881796    0.256326    0.361398    0.174112
H    -8.795901    1.887918    0.954639    0.255938    0.395974   -0.079799
O    -6.465382    3.298328    0.181453    0.059834    0.197007    0.025882
O    -5.926977    1.322468   -0.092360    0.107768   -0.351758   -0.048727
H    -4.767698    1.101628   -0.137261   -0.753354    1.608372    0.225683
8
* Frequency(14) 1212.9183
C    -8.241988    1.768893   -0.002143    0.086730   -0.116949   -0.016830
C    -6.687454    2.167811    0.031697   -0.273538    0.131624    0.021152
H    -8.209733    0.671646   -0.147880   -0.193151   -0.084396   -0.008885
H    -8.824251    2.120677   -0.886721    0.256326    0.361398    0.174112
H    -8.803139    1.876718    0.956896    0.255938    0.395974   -0.079799
O    -6.467074    3.292756    0.180721    0.059834    0.197007    0.025882
O    -5.930026    1.332417   -0.090982    0.107768   -0.351758   -0.048727
H    -4.746390    1.056136   -0.143644   -0.753354    1.608372    0.225683
8
* Frequency(14) 1212.9183
C    -8.241163    1.767780   -0.002303    0.086730   -0.116949   -0.016830
C    -6.690057    2.169063    0.031898   -0.273538    0.131624    0.021152
H    -8.211570    0.670843   -0.147964   -0.193151   -0.084396   -0.008885
H    -8.821812    2.124115   -0.885064    0.256326    0.361398    0.174112
H    -8.800704    1.880486    0.956136    0.255938    0.395974   -0.079799
O    -6.466505    3.294630    0.180968    0.059834    0.197007    0.025882
O    -5.929000    1.329070   -0.091446    0.107768   -0.351758   -0.048727
H    -4.753558    1.071439   -0.141497   -0.753354    1.608372    0.225683
8
* Frequency(14) 1212.9183
C    -8.237149    1.762368   -0.003082    0.086730   -0.116949   -0.016830
C    -6.702717    2.175155    0.032877   -0.273538    0.131624    0.021152
H    -8.220510    0.666937   -0.148376   -0.193151   -0.084396   -0.008885
H    -8.809949    2.140841   -0.877006    0.256326    0.361398    0.174112
H    -8.788859    1.898812    0.952443    0.255938    0.395974   -0.079799
O    -6.463736    3.303748    0.182165    0.059834    0.197007    0.025882
O    -5.924012    1.312790   -0.093701    0.107768   -0.351758   -0.048727
H    -4.788425    1.145878   -0.131052   -0.753354    1.608372    0.225683
8
* Frequency(14) 1212.9183
C    -8.230381    1.753242   -0.004395    0.086730   -0.116949   -0.016830
C    -6.724062    2.185426    0.034528   -0.273538    0.131624    0.021152
H    -8.235582    0.660352   -0.149069   -0.193151   -0.084396   -0.008885
H    -8.789947    2.169043   -0.863420    0.256326    0.361398    0.174112
H    -8.768887    1.929712    0.946216    0.255938    0.395974   -0.079799
O    -6.459067    3.319121    0.184185    0.059834    0.197007    0.025882
O    -5.915603    1.285341   -0.097503    0.107768   -0.351758   -0.048727
H    -4.847212    1.271385   -0.113441   -0.753354    1.608372    0.225683
8
* Frequency(14) 1212.9183
C    -8.221593    1.741391   -0.006100    0.086730   -0.116949   -0.016830
C    -6.751779    2.198764    0.036671   -0.273538    0.131624    0.021152
H    -8.255154    0.651800   -0.149969   -0.193151   -0.084396   -0.008885
H    -8.763974    2.205663   -0.845777    0.256326    0.361398    0.174112
H    -8.742953    1.969835    0.938130    0.255938    0.395974   -0.079799
O    -6.453004    3.339084    0.186808    0.059834    0.197007    0.025882
O    -5.904683    1.249697   -0.102441    0.107768   -0.351758   -0.048727
H    -4.923549    1.434361   -0.090573   -0.753354    1.608372    0.225683
8
* Frequency(14) 1212.9183
C    -8.211736    1.728101   -0.008013    0.086730   -0.116949   -0.016830
C    -6.782866    2.213722    0.039075   -0.273538    0.131624    0.021152
H    -8.277104    0.642209   -0.150979   -0.193151   -0.084396   -0.008885
H    -8.734844    2.246734   -0.825990    0.256326    0.361398    0.174112
H    -8.713867    2.014836    0.929061    0.255938    0.395974   -0.079799
O    -6.446204    3.361473    0.189749    0.059834    0.197007    0.025882
O    -5.892435    1.209722   -0.107978    0.107768   -0.351758   -0.048727
H    -5.009163    1.617144   -0.064925   -0.753354    1.608372    0.225683
