8
* (null), Energy   -1000.0000000
C    -8.211736    1.728101   -0.008013   -0.015734   -0.345608   -0.047031
C    -6.782866    2.213722    0.039075    0.128245    0.014920    0.000954
H    -8.277104    0.642209   -0.150979   -1.574317   -0.257643   -0.011972
H    -8.734844    2.246734   -0.825990    0.409706    0.572710    0.250559
H    -8.713867    2.014836    0.929061    0.416563    0.621699   -0.100174
O    -6.446204    3.361473    0.189749    0.066821    0.100736    0.012688
O    -5.892435    1.209722   -0.107978   -0.111044    0.111510    0.016404
H    -5.009163    1.617144   -0.064925    0.109315   -0.365172   -0.051120
8
* Frequency(12) 1003.0916
C    -8.213525    1.688824   -0.013358   -0.015734   -0.345608   -0.047031
C    -6.768291    2.215418    0.039183    0.128245    0.014920    0.000954
H    -8.456017    0.612929   -0.152339   -1.574317   -0.257643   -0.011972
H    -8.688283    2.311819   -0.797515    0.409706    0.572710    0.250559
H    -8.666527    2.085489    0.917677    0.416563    0.621699   -0.100174
O    -6.438610    3.372921    0.191191    0.066821    0.100736    0.012688
O    -5.905055    1.222394   -0.106114   -0.111044    0.111510    0.016404
H    -4.996740    1.575644   -0.070735    0.109315   -0.365172   -0.051120
8
* Frequency(12) 1003.0916
C    -8.215119    1.653804   -0.018124   -0.015734   -0.345608   -0.047031
C    -6.755296    2.216929    0.039280    0.128245    0.014920    0.000954
H    -8.615542    0.586822   -0.153552   -1.574317   -0.257643   -0.011972
H    -8.646767    2.369852   -0.772126    0.409706    0.572710    0.250559
H    -8.624317    2.148485    0.907527    0.416563    0.621699   -0.100174
O    -6.431839    3.383128    0.192477    0.066821    0.100736    0.012688
O    -5.916307    1.233694   -0.104452   -0.111044    0.111510    0.016404
H    -4.985664    1.538641   -0.075915    0.109315   -0.365172   -0.051120
8
* Frequency(12) 1003.0916
C    -8.216347    1.626835   -0.021794   -0.015734   -0.345608   -0.047031
C    -6.745289    2.218094    0.039355    0.128245    0.014920    0.000954
H    -8.738392    0.566717   -0.154487   -1.574317   -0.257643   -0.011972
H    -8.614796    2.414543   -0.752574    0.409706    0.572710    0.250559
H    -8.591811    2.196999    0.899710    0.416563    0.621699   -0.100174
O    -6.426625    3.390989    0.193467    0.066821    0.100736    0.012688
O    -5.924972    1.242395   -0.103172   -0.111044    0.111510    0.016404
H    -4.977133    1.510146   -0.079904    0.109315   -0.365172   -0.051120
8
* Frequency(12) 1003.0916
C    -8.217075    1.610840   -0.023970   -0.015734   -0.345608   -0.047031
C    -6.739353    2.218784    0.039399    0.128245    0.014920    0.000954
H    -8.811255    0.554793   -0.155041   -1.574317   -0.257643   -0.011972
H    -8.595834    2.441049   -0.740978    0.409706    0.572710    0.250559
H    -8.572532    2.225772    0.895073    0.416563    0.621699   -0.100174
O    -6.423532    3.395651    0.194054    0.066821    0.100736    0.012688
O    -5.930112    1.247556   -0.102413   -0.111044    0.111510    0.016404
H    -4.972074    1.493245   -0.082270    0.109315   -0.365172   -0.051120
8
* Frequency(12) 1003.0916
C    -8.217225    1.607551   -0.024418   -0.015734   -0.345608   -0.047031
C    -6.738133    2.218926    0.039408    0.128245    0.014920    0.000954
H    -8.826234    0.552342   -0.155155   -1.574317   -0.257643   -0.011972
H    -8.591936    2.446498   -0.738594    0.409706    0.572710    0.250559
H    -8.568568    2.231687    0.894120    0.416563    0.621699   -0.100174
O    -6.422897    3.396610    0.194175    0.066821    0.100736    0.012688
O    -5.931168    1.248617   -0.102256   -0.111044    0.111510    0.016404
H    -4.971034    1.489770   -0.082756    0.109315   -0.365172   -0.051120
8
* Frequency(12) 1003.0916
C    -8.216780    1.617326   -0.023088   -0.015734   -0.345608   -0.047031
C    -6.741760    2.218504    0.039381    0.128245    0.014920    0.000954
H    -8.781706    0.559629   -0.154816   -1.574317   -0.257643   -0.011972
H    -8.603524    2.430299   -0.745681    0.409706    0.572710    0.250559
H    -8.580350    2.214103    0.896954    0.416563    0.621699   -0.100174
O    -6.424787    3.393761    0.193816    0.066821    0.100736    0.012688
O    -5.928027    1.245463   -0.102720   -0.111044    0.111510    0.016404
H    -4.974126    1.500099   -0.081310    0.109315   -0.365172   -0.051120
8
* Frequency(12) 1003.0916
C    -8.215788    1.639106   -0.020124   -0.015734   -0.345608   -0.047031
C    -6.749842    2.217564    0.039321    0.128245    0.014920    0.000954
H    -8.682496    0.575865   -0.154062   -1.574317   -0.257643   -0.011972
H    -8.629343    2.394209   -0.761470    0.409706    0.572710    0.250559
H    -8.606601    2.174925    0.903266    0.416563    0.621699   -0.100174
O    -6.428997    3.387413    0.193016    0.066821    0.100736    0.012688
O    -5.921030    1.238436   -0.103754   -0.111044    0.111510    0.016404
H    -4.981015    1.523111   -0.078089    0.109315   -0.365172   -0.051120
8
* Frequency(12) 1003.0916
C    -8.214357    1.670529   -0.015848   -0.015734   -0.345608   -0.047031
C    -6.761502    2.216207    0.039234    0.128245    0.014920    0.000954
H    -8.539357    0.599290   -0.152973   -1.574317   -0.257643   -0.011972
H    -8.666594    2.342137   -0.784252    0.409706    0.572710    0.250559
H    -8.644475    2.118399    0.912374    0.416563    0.621699   -0.100174
O    -6.435073    3.378253    0.191863    0.066821    0.100736    0.012688
O    -5.910933    1.228297   -0.105246   -0.111044    0.111510    0.016404
H    -4.990954    1.556313   -0.073441    0.109315   -0.365172   -0.051120
8
* Frequency(12) 1003.0916
C    -8.212643    1.708191   -0.010723   -0.015734   -0.345608   -0.047031
C    -6.775478    2.214582    0.039130    0.128245    0.014920    0.000954
H    -8.367798    0.627367   -0.151669   -1.574317   -0.257643   -0.011972
H    -8.711241    2.279727   -0.811556    0.409706    0.572710    0.250559
H    -8.689870    2.050651    0.923291    0.416563    0.621699   -0.100174
O    -6.442355    3.367276    0.190480    0.066821    0.100736    0.012688
O    -5.898833    1.216146   -0.107033   -0.111044    0.111510    0.016404
H    -5.002866    1.596107   -0.067870    0.109315   -0.365172   -0.051120
8
* Frequency(12) 1003.0916
C    -8.210830    1.748011   -0.005304   -0.015734   -0.345608   -0.047031
C    -6.790254    2.212863    0.039020    0.128245    0.014920    0.000954
H    -8.186411    0.657051   -0.150289   -1.574317   -0.257643   -0.011972
H    -8.758446    2.213741   -0.840424    0.409706    0.572710    0.250559
H    -8.737864    1.979021    0.934832    0.416563    0.621699   -0.100174
O    -6.450053    3.355669    0.189018    0.066821    0.100736    0.012688
O    -5.886038    1.203298   -0.108923   -0.111044    0.111510    0.016404
H    -5.015461    1.638181   -0.061980    0.109315   -0.365172   -0.051120
8
* Frequency(12) 1003.0916
C    -8.209115    1.785673   -0.000179   -0.015734   -0.345608   -0.047031
C    -6.804229    2.211237    0.038916    0.128245    0.014920    0.000954
H    -8.014852    0.685127   -0.148985   -1.574317   -0.257643   -0.011972
H    -8.803093    2.151331   -0.867729    0.409706    0.572710    0.250559
H    -8.783259    1.911272    0.945749    0.416563    0.621699   -0.100174
O    -6.457335    3.344692    0.187635    0.066821    0.100736    0.012688
O    -5.873938    1.191146   -0.110711   -0.111044    0.111510    0.016404
H    -5.027373    1.677975   -0.056409    0.109315   -0.365172   -0.051120
8
* Frequency(12) 1003.0916
C    -8.207685    1.817096    0.004098   -0.015734   -0.345608   -0.047031
C    -6.815889    2.209880    0.038829    0.128245    0.014920    0.000954
H    -7.871712    0.708553   -0.147896   -1.574317   -0.257643   -0.011972
H    -8.840344    2.099259   -0.890510    0.409706    0.572710    0.250559
H    -8.821133    1.854746    0.954857    0.416563    0.621699   -0.100174
O    -6.463411    3.335533    0.186482    0.066821    0.100736    0.012688
O    -5.863841    1.181008   -0.112202   -0.111044    0.111510    0.016404
H    -5.037312    1.711177   -0.051761    0.109315   -0.365172   -0.051120
8
* Frequency(12) 1003.0916
C    -8.206693    1.838875    0.007061   -0.015734   -0.345608   -0.047031
C    -6.823971    2.208940    0.038769    0.128245    0.014920    0.000954
H    -7.772503    0.724789   -0.147142   -1.574317   -0.257643   -0.011972
H    -8.866163    2.063168   -0.906299    0.409706    0.572710    0.250559
H    -8.847384    1.815568    0.961169    0.416563    0.621699   -0.100174
O    -6.467622    3.329185    0.185682    0.066821    0.100736    0.012688
O    -5.856844    1.173981   -0.113236   -0.111044    0.111510    0.016404
H    -5.044201    1.734189   -0.048540    0.109315   -0.365172   -0.051120
8
* Frequency(12) 1003.0916
C    -8.206248    1.848650    0.008392   -0.015734   -0.345608   -0.047031
C    -6.827598    2.208518    0.038742    0.128245    0.014920    0.000954
H    -7.727975    0.732076   -0.146803   -1.574317   -0.257643   -0.011972
H    -8.877751    2.046970   -0.913386    0.409706    0.572710    0.250559
H    -8.859166    1.797984    0.964003    0.416563    0.621699   -0.100174
O    -6.469512    3.326335    0.185324    0.066821    0.100736    0.012688
O    -5.853703    1.170827   -0.113700   -0.111044    0.111510    0.016404
H    -5.047293    1.744518   -0.047094    0.109315   -0.365172   -0.051120
8
* Frequency(12) 1003.0916
C    -8.206398    1.845362    0.007944   -0.015734   -0.345608   -0.047031
C    -6.826378    2.208660    0.038751    0.128245    0.014920    0.000954
H    -7.742954    0.729625   -0.146917   -1.574317   -0.257643   -0.011972
H    -8.873853    2.052419   -0.911002    0.409706    0.572710    0.250559
H    -8.855203    1.803899    0.963050    0.416563    0.621699   -0.100174
O    -6.468876    3.327294    0.185444    0.066821    0.100736    0.012688
O    -5.854759    1.171888   -0.113544   -0.111044    0.111510    0.016404
H    -5.046253    1.741043   -0.047581    0.109315   -0.365172   -0.051120
8
* Frequency(12) 1003.0916
C    -8.207126    1.829367    0.005767   -0.015734   -0.345608   -0.047031
C    -6.820442    2.209350    0.038795    0.128245    0.014920    0.000954
H    -7.815816    0.717700   -0.147471   -1.574317   -0.257643   -0.011972
H    -8.854891    2.078925   -0.899406    0.409706    0.572710    0.250559
H    -8.835923    1.832673    0.958413    0.416563    0.621699   -0.100174
O    -6.465783    3.331956    0.186031    0.066821    0.100736    0.012688
O    -5.859899    1.177049   -0.112785   -0.111044    0.111510    0.016404
H    -5.041194    1.724143   -0.049946    0.109315   -0.365172   -0.051120
8
* Frequency(12) 1003.0916
C    -8.208354    1.802398    0.002097   -0.015734   -0.345608   -0.047031
C    -6.810435    2.210515    0.038870    0.128245    0.014920    0.000954
H    -7.938666    0.697596   -0.148405   -1.574317   -0.257643   -0.011972
H    -8.822920    2.123616   -0.879854    0.409706    0.572710    0.250559
H    -8.803417    1.881186    0.950596    0.416563    0.621699   -0.100174
O    -6.460569    3.339817    0.187021    0.066821    0.100736    0.012688
O    -5.868564    1.185750   -0.111505   -0.111044    0.111510    0.016404
H    -5.032663    1.695647   -0.053936    0.109315   -0.365172   -0.051120
8
* Frequency(12) 1003.0916
C    -8.209948    1.767377   -0.002668   -0.015734   -0.345608   -0.047031
C    -6.797440    2.212027    0.038967    0.128245    0.014920    0.000954
H    -8.098191    0.671489   -0.149618   -1.574317   -0.257643   -0.011972
H    -8.781404    2.181648   -0.854465    0.409706    0.572710    0.250559
H    -8.761207    1.944183    0.940446    0.416563    0.621699   -0.100174
O    -6.453798    3.350024    0.188307    0.066821    0.100736    0.012688
O    -5.879816    1.197049   -0.109843   -0.111044    0.111510    0.016404
H    -5.021587    1.658644   -0.059116    0.109315   -0.365172   -0.051120
8
* Frequency(12) 1003.0916
C    -8.211736    1.728101   -0.008013   -0.015734   -0.345608   -0.047031
C    -6.782866    2.213722    0.039075    0.128245    0.014920    0.000954
H    -8.277104    0.642209   -0.150979   -1.574317   -0.257643   -0.011972
H    -8.734844    2.246734   -0.825990    0.409706    0.572710    0.250559
H    -8.713867    2.014836    0.929061    0.416563    0.621699   -0.100174
O    -6.446204    3.361473    0.189749    0.066821    0.100736    0.012688
O    -5.892435    1.209722   -0.107978   -0.111044    0.111510    0.016404
H    -5.009163    1.617144   -0.064925    0.109315   -0.365172   -0.051120
