
                                 *****************
                                 * O   R   C   A *
                                 *****************

           --- An Ab Initio, DFT and Semiempirical electronic structure package ---

                  #######################################################
                  #                        -***-                        #
                  #          Department of theory and spectroscopy      #
                  #               Directorship: Frank Neese             #
                  #        Max Planck Institute fuer Kohlenforschung    #
                  #                Kaiser Wilhelm Platz 1               #
                  #                 D-45470 Muelheim/Ruhr               #
                  #                      Germany                        #
                  #                                                     #
                  #                  All rights reserved                #
                  #                        -***-                        #
                  #######################################################


                         Program Version 4.2.1 -  RELEASE  -


 With contributions from (in alphabetic order):
   Daniel Aravena         : Magnetic Suceptibility
   Michael Atanasov       : Ab Initio Ligand Field Theory (pilot matlab implementation)
   Alexander A. Auer      : GIAO ZORA, VPT2
   Ute Becker             : Parallelization
   Giovanni Bistoni       : ED, misc. LED, open-shell LED, HFLD
   Martin Brehm           : Molecular dynamics
   Dmytro Bykov           : SCF Hessian
   Vijay G. Chilkuri      : MRCI spin determinant printing, contributions to CSF-ICE
   Dipayan Datta          : RHF DLPNO-CCSD density
   Achintya Kumar Dutta   : EOM-CC, STEOM-CC
   Dmitry Ganyushin       : Spin-Orbit,Spin-Spin,Magnetic field MRCI
   Miquel Garcia          : C-PCM Hessian, Gaussian charge scheme
   Yang Guo               : DLPNO-NEVPT2, CIM, IAO-localization
   Andreas Hansen         : Spin unrestricted coupled pair/coupled cluster methods
   Benjamin Helmich-Paris : CASSCF linear response (MC-RPA)
   Lee Huntington         : MR-EOM, pCC
   Robert Izsak           : Overlap fitted RIJCOSX, COSX-SCS-MP3, EOM
   Christian Kollmar      : KDIIS, OOCD, Brueckner-CCSD(T), CCSD density
   Simone Kossmann        : Meta GGA functionals, TD-DFT gradient, OOMP2, MP2 Hessian
   Martin Krupicka        : AUTO-CI
   Lucas Lang             : DCDCAS
   Dagmar Lenk            : GEPOL surface, SMD
   Dimitrios Liakos       : Extrapolation schemes; Compound Job, initial MDCI parallelization
   Dimitrios Manganas     : Further ROCIS development; embedding schemes
   Dimitrios Pantazis     : SARC Basis sets
   Taras Petrenko         : DFT Hessian,TD-DFT gradient, ASA, ECA, R-Raman, ABS, FL, XAS/XES, NRVS
   Peter Pinski           : DLPNO-MP2, DLPNO-MP2 Gradient
   Christoph Reimann      : Effective Core Potentials
   Marius Retegan         : Local ZFS, SOC
   Christoph Riplinger    : Optimizer, TS searches, QM/MM, DLPNO-CCSD(T), (RO)-DLPNO pert. Triples
   Tobias Risthaus        : Range-separated hybrids, TD-DFT gradient, RPA, STAB
   Michael Roemelt        : Original ROCIS implementation
   Masaaki Saitow         : Open-shell DLPNO-CCSD energy and density
   Barbara Sandhoefer     : DKH picture change effects
   Avijit Sen             : IP-ROCIS
   Kantharuban Sivalingam : CASSCF convergence, NEVPT2, FIC-MRCI
   Bernardo de Souza      : ESD, SOC TD-DFT
   Georgi Stoychev        : AutoAux, RI-MP2 NMR
   Willem Van den Heuvel  : Paramagnetic NMR
   Boris Wezisla          : Elementary symmetry handling
   Frank Wennmohs         : Technical directorship


 We gratefully acknowledge several colleagues who have allowed us to
 interface, adapt or use parts of their codes:
   Stefan Grimme, W. Hujo, H. Kruse,             : VdW corrections, initial TS optimization,
                  C. Bannwarth                     DFT functionals, gCP, sTDA/sTD-DF
   Ed Valeev, F. Pavosevic, A. Kumar             : LibInt (2-el integral package), F12 methods
   Garnet Chan, S. Sharma, J. Yang, R. Olivares  : DMRG
   Ulf Ekstrom                                   : XCFun DFT Library
   Mihaly Kallay                                 : mrcc  (arbitrary order and MRCC methods)
   Andreas Klamt, Michael Diedenhofen            : otool_cosmo (COSMO solvation model)
   Jiri Pittner, Ondrej Demel                    : Mk-CCSD
   Frank Weinhold                                : gennbo (NPA and NBO analysis)
   Christopher J. Cramer and Donald G. Truhlar   : smd solvation model
   Lars Goerigk                                  : TD-DFT with DH, B97 family of functionals
   V. Asgeirsson, H. Jonsson                     : NEB implementation
   FAccTs GmbH                                   : IRC, NEB, NEB-TS, Multilevel, MM, QM/MM, CI optimization
   S Lehtola, MJT Oliveira, MAL Marques          : LibXC Library


 Your calculation uses the libint2 library for the computation of 2-el integrals
 For citations please refer to: http://libint.valeyev.net

 Your ORCA version has been built with support for libXC version: 4.2.3
 For citations please refer to: https://tddft.org/programs/libxc/

 This ORCA versions uses:
   CBLAS   interface :  Fast vector & matrix operations
   LAPACKE interface :  Fast linear algebra routines


----- Orbital basis set information -----
Your calculation utilizes the basis: def2-SVP
   F. Weigend and R. Ahlrichs, Phys. Chem. Chem. Phys. 7, 3297 (2005).

================================================================================
                                        WARNINGS
                       Please study these warnings very carefully!
================================================================================


WARNING: Geometry Optimization
  ===> : Switching off AutoStart
         For restart on a previous wavefunction, please use MOREAD

INFO   : the flag for use of LIBINT has been found!

================================================================================
                                       INPUT FILE
================================================================================
NAME = AcOH.inp
|  1> !B3LYP DEF2-SVP OPT FREQ

|  2> * XYZ 0 1

|  3> C         -8.23508        1.75252       -0.00446

|  4> C         -6.80437        2.18360        0.03487

|  5> H         -8.30301        0.65382       -0.15041

|  6> H         -8.75566        2.25995       -0.84350

|  7> H         -8.73273        2.02013        0.95115

|  8> O         -6.52860        3.36373        0.18904

|  9> O         -5.82021        1.26961       -0.09983

| 10> H         -4.88856        1.53058       -0.07686

| 11> **                         ****END OF INPUT****
================================================================================

                       *****************************
                       * Geometry Optimization Run *
                       *****************************

Geometry optimization settings:
Update method            Update   .... BFGS
Choice of coordinates    CoordSys .... Z-matrix Internals
Initial Hessian          InHess   .... Almoef's Model

Convergence Tolerances:
Energy Change            TolE     ....  5.0000e-06 Eh
Max. Gradient            TolMAXG  ....  3.0000e-04 Eh/bohr
RMS Gradient             TolRMSG  ....  1.0000e-04 Eh/bohr
Max. Displacement        TolMAXD  ....  4.0000e-03 bohr
RMS Displacement         TolRMSD  ....  2.0000e-03 bohr
Strict Convergence                ....  False
------------------------------------------------------------------------------
                        ORCA OPTIMIZATION COORDINATE SETUP
------------------------------------------------------------------------------

The optimization will be done in new redundant internal coordinates
Making redundant internal coordinates   ...  (new redundants) done
Evaluating the initial hessian          ...  (Almloef) done
Evaluating the coordinates              ...  done
Calculating the B-matrix                .... done
Calculating the G-matrix                .... done
Diagonalizing the G-matrix              .... done
The first mode is                       ....    7
The number of degrees of freedom        ....   18

    -----------------------------------------------------------------
                    Redundant Internal Coordinates


    -----------------------------------------------------------------
         Definition                    Initial Value    Approx d2E/dq
    -----------------------------------------------------------------
      1. B(C   1,C   0)                  1.4948         0.425207   
      2. B(H   2,C   0)                  1.1104         0.334061   
      3. B(H   3,C   0)                  1.1102         0.334383   
      4. B(H   4,C   0)                  1.1102         0.334391   
      5. B(O   5,C   1)                  1.2217         1.038496   
      6. B(O   6,C   1)                  1.3498         0.648535   
      7. B(H   7,O   6)                  0.9678         0.505299   
      8. A(C   1,C   0,H   2)          110.3259         0.327234   
      9. A(C   1,C   0,H   4)          109.6876         0.327287   
     10. A(H   2,C   0,H   4)          108.9185         0.284140   
     11. A(C   1,C   0,H   3)          109.6878         0.327286   
     12. A(H   3,C   0,H   4)          109.2796         0.284183   
     13. A(H   2,C   0,H   3)          108.9186         0.284139   
     14. A(C   0,C   1,O   5)          119.8651         0.442138   
     15. A(O   5,C   1,O   6)          120.1383         0.474346   
     16. A(C   0,C   1,O   6)          119.9966         0.406442   
     17. A(C   1,O   6,H   7)          121.1254         0.371162   
     18. D(O   5,C   1,C   0,H   2)    179.9996         0.013360   
     19. D(O   6,C   1,C   0,H   2)     -0.0003         0.013360   
     20. D(O   5,C   1,C   0,H   3)     60.0154         0.013360   
     21. D(O   6,C   1,C   0,H   3)   -119.9845         0.013360   
     22. D(O   6,C   1,C   0,H   4)    119.9838         0.013360   
     23. D(O   5,C   1,C   0,H   4)    -60.0163         0.013360   
     24. D(H   7,O   6,C   1,C   0)    179.9998         0.031073   
     25. D(H   7,O   6,C   1,O   5)     -0.0001         0.031073   
    -----------------------------------------------------------------

Number of atoms                         .... 8
Number of degrees of freedom            .... 25

         *************************************************************
         *                GEOMETRY OPTIMIZATION CYCLE   1            *
         *************************************************************
---------------------------------
CARTESIAN COORDINATES (ANGSTROEM)
---------------------------------
  C     -8.235080    1.752520   -0.004460
  C     -6.804370    2.183600    0.034870
  H     -8.303010    0.653820   -0.150410
  H     -8.755660    2.259950   -0.843500
  H     -8.732730    2.020130    0.951150
  O     -6.528600    3.363730    0.189040
  O     -5.820210    1.269610   -0.099830
  H     -4.888560    1.530580   -0.076860

----------------------------
CARTESIAN COORDINATES (A.U.)
----------------------------
  NO LB      ZA    FRAG     MASS         X           Y           Z
   0 C     6.0000    0    12.011  -15.562046    3.311783   -0.008428
   1 C     6.0000    0    12.011  -12.858396    4.126406    0.065895
   2 H     1.0000    0     1.008  -15.690415    1.235541   -0.284234
   3 H     1.0000    0     1.008  -16.545800    4.270687   -1.593984
   4 H     1.0000    0     1.008  -16.502468    3.817492    1.797413
   5 O     8.0000    0    15.999  -12.337266    6.356528    0.357234
   6 O     8.0000    0    15.999  -10.998603    2.399215   -0.188651
   7 H     1.0000    0     1.008   -9.238040    2.892377   -0.145244

--------------------------------
INTERNAL COORDINATES (ANGSTROEM)
--------------------------------
 C      0   0   0     0.000000000000     0.00000000     0.00000000
 C      1   0   0     1.494760154473     0.00000000     0.00000000
 H      1   2   0     1.110431257395   110.32585013     0.00000000
 H      1   2   3     1.110169745084   109.68778877   240.01575460
 H      1   2   3     1.110162648759   109.68762061   119.98408548
 O      2   1   3     1.221689117042   119.86512789   179.99964557
 O      2   1   3     1.349849145534   119.99661076     0.00000000
 H      7   2   1     0.967783387076   121.12537532   179.99978854

---------------------------
INTERNAL COORDINATES (A.U.)
---------------------------
 C      0   0   0     0.000000000000     0.00000000     0.00000000
 C      1   0   0     2.824687327852     0.00000000     0.00000000
 H      1   2   0     2.098410967023   110.32585013     0.00000000
 H      1   2   3     2.097916780374   109.68778877   240.01575460
 H      1   2   3     2.097903370263   109.68762061   119.98408548
 O      2   1   3     2.308657852002   119.86512789   179.99964557
 O      2   1   3     2.550845207168   119.99661076     0.00000000
 H      7   2   1     1.828845558532   121.12537532   179.99978854

---------------------
BASIS SET INFORMATION
---------------------
There are 3 groups of distinct atoms

 Group   1 Type C   : 7s4p1d contracted to 3s2p1d pattern {511/31/1}
 Group   2 Type H   : 4s1p contracted to 2s1p pattern {31/1}
 Group   3 Type O   : 7s4p1d contracted to 3s2p1d pattern {511/31/1}

Atom   0C    basis set group =>   1
Atom   1C    basis set group =>   1
Atom   2H    basis set group =>   2
Atom   3H    basis set group =>   2
Atom   4H    basis set group =>   2
Atom   5O    basis set group =>   3
Atom   6O    basis set group =>   3
Atom   7H    basis set group =>   2
------------------------------------------------------------------------------
                           ORCA GTO INTEGRAL CALCULATION
------------------------------------------------------------------------------

                         BASIS SET STATISTICS AND STARTUP INFO

 # of primitive gaussian shells          ...   68
 # of primitive gaussian functions       ...  124
 # of contracted shells                  ...   36
 # of contracted basis functions         ...   76
 Highest angular momentum                ...    2
 Maximum contraction depth               ...    5
 Integral package used                   ... LIBINT
 Integral threshhold            Thresh   ...  2.500e-11
 Primitive cut-off              TCut     ...  2.500e-12


------------------------------ INTEGRAL EVALUATION ----------------------------


 * One electron integrals 
 Pre-screening matrix                    ... done
 Shell pair data                         ... done (   0.000 sec)

Timings:
 Total evaluation time               ...     0.001 sec (   0.000 min)
 One electron matrix time            ...     0.006 sec (   0.000 min) =600.0%
 Schwartz matrix evaluation time     ...     0.098 sec (   0.002 min) =9800.0%

-------------------------------------------------------------------------------
                                 ORCA SCF
-------------------------------------------------------------------------------

------------
SCF SETTINGS
------------
Hamiltonian:
 Density Functional     Method          .... DFT(GTOs)
 Exchange Functional    Exchange        .... B88
   X-Alpha parameter    XAlpha          ....  0.666667
   Becke's b parameter  XBeta           ....  0.004200
 Correlation Functional Correlation     .... LYP
 LDA part of GGA corr.  LDAOpt          .... VWN-5
 Gradients option       PostSCFGGA      .... off
 Hybrid DFT is turned on
   Fraction HF Exchange ScalHFX         ....  0.200000
   Scaling of DF-GGA-X  ScalDFX         ....  0.720000
   Scaling of DF-GGA-C  ScalDFC         ....  0.810000
   Scaling of DF-LDA-C  ScalLDAC        ....  1.000000
   Perturbative correction              ....  0.000000
   Density functional embedding theory  .... OFF
   NL short-range parameter             ....  4.800000


General Settings:
 Integral files         IntName         .... AcOH
 Hartree-Fock type      HFTyp           .... RHF
 Total Charge           Charge          ....    0
 Multiplicity           Mult            ....    1
 Number of Electrons    NEL             ....   32
 Basis Dimension        Dim             ....   76
 Nuclear Repulsion      ENuc            ....    120.3067417317 Eh

Convergence Acceleration:
 DIIS                   CNVDIIS         .... on
   Start iteration      DIISMaxIt       ....    12
   Startup error        DIISStart       ....  0.200000
   # of expansion vecs  DIISMaxEq       ....     5
   Bias factor          DIISBfac        ....   1.050
   Max. coefficient     DIISMaxC        ....  10.000
 Newton-Raphson         CNVNR           .... off
 SOSCF                  CNVSOSCF        .... on
   Start iteration      SOSCFMaxIt      ....   150
   Startup grad/error   SOSCFStart      ....  0.003300
 Level Shifting         CNVShift        .... on
   Level shift para.    LevelShift      ....    0.2500
   Turn off err/grad.   ShiftErr        ....    0.0010
 Zerner damping         CNVZerner       .... off
 Static damping         CNVDamp         .... on
   Fraction old density DampFac         ....    0.7000
   Max. Damping (<1)    DampMax         ....    0.9800
   Min. Damping (>=0)   DampMin         ....    0.0000
   Turn off err/grad.   DampErr         ....    0.1000
 Fernandez-Rico         CNVRico         .... off

SCF Procedure:
 Maximum # iterations   MaxIter         ....   125
 SCF integral mode      SCFMode         .... Direct
   Integral package                     .... LIBINT
 Reset frequency        DirectResetFreq ....    20
 Integral Threshold     Thresh          ....  2.500e-11 Eh
 Primitive CutOff       TCut            ....  2.500e-12 Eh

Convergence Tolerance:
 Convergence Check Mode ConvCheckMode   .... Total+1el-Energy
 Convergence forced     ConvForced      .... 0
 Energy Change          TolE            ....  1.000e-08 Eh
 1-El. energy change                    ....  1.000e-05 Eh
 Orbital Gradient       TolG            ....  1.000e-05
 Orbital Rotation angle TolX            ....  1.000e-05
 DIIS Error             TolErr          ....  5.000e-07


Diagonalization of the overlap matrix:
Smallest eigenvalue                        ... 3.443e-03
Time for diagonalization                   ...    0.001 sec
Threshold for overlap eigenvalues          ... 1.000e-08
Number of eigenvalues below threshold      ... 0
Time for construction of square roots      ...    0.001 sec
Total time needed                          ...    0.002 sec

-------------------
DFT GRID GENERATION
-------------------

General Integration Accuracy     IntAcc      ...  4.340
Radial Grid Type                 RadialGrid  ... Gauss-Chebyshev
Angular Grid (max. acc.)         AngularGrid ... Lebedev-110
Angular grid pruning method      GridPruning ... 3 (G Style)
Weight generation scheme         WeightScheme... Becke
Basis function cutoff            BFCut       ...    1.0000e-11
Integration weight cutoff        WCut        ...    1.0000e-14
Grids for H and He will be reduced by one unit

# of grid points (after initial pruning)     ...   9920 (   0.0 sec)
# of grid points (after weights+screening)   ...   9562 (   0.0 sec)
nearest neighbour list constructed           ...    0.0 sec
Grid point re-assignment to atoms done       ...    0.0 sec
Grid point division into batches done        ...    0.0 sec
Reduced shell lists constructed in    0.0 sec

Total number of grid points                  ...     9562
Total number of batches                      ...      154
Average number of points per batch           ...       62
Average number of grid points per atom       ...     1195
Average number of shells per batch           ...    29.68 (82.44%)
Average number of basis functions per batch  ...    63.03 (82.94%)
Average number of large shells per batch     ...    24.93 (84.00%)
Average number of large basis fcns per batch ...    52.14 (82.72%)
Maximum spatial batch extension              ...  17.36, 25.60, 25.68 au
Average spatial batch extension              ...   4.17,  4.33,  4.44 au

Time for grid setup =    0.029 sec

------------------------------
INITIAL GUESS: MODEL POTENTIAL
------------------------------
Loading Hartree-Fock densities                     ... done
Calculating cut-offs                               ... done
Setting up the integral package                    ... done
Initializing the effective Hamiltonian             ... done
Starting the Coulomb interaction                   ... done (   0.0 sec)
Reading the grid                                   ... done
Mapping shells                                     ... done
Starting the XC term evaluation                    ... done (   0.0 sec)
  promolecular density results
     # of electrons  =     32.001935540
     EX              =    -27.842808183
     EC              =     -1.095027009
     EX+EC           =    -28.937835192
Transforming the Hamiltonian                       ... done (   0.0 sec)
Diagonalizing the Hamiltonian                      ... done (   0.0 sec)
Back transforming the eigenvectors                 ... done (   0.0 sec)
Now organizing SCF variables                       ... done
                      ------------------
                      INITIAL GUESS DONE (   0.1 sec)
                      ------------------
--------------
SCF ITERATIONS
--------------
ITER       Energy         Delta-E        Max-DP      RMS-DP      [F,P]     Damp
               ***  Starting incremental Fock matrix formation  ***
  0   -228.6035321088   0.000000000000 0.10753748  0.00495970  0.2852037 0.7000
  1   -228.6942737176  -0.090741608801 0.06264982  0.00293983  0.1093749 0.7000
                               ***Turning on DIIS***
  2   -228.7243555109  -0.030081793336 0.07152250  0.00375367  0.0409885 0.0000
  3   -228.7772208211  -0.052865310165 0.04046491  0.00208987  0.0557821 0.0000
  4   -228.7870356998  -0.009814878672 0.00952561  0.00056839  0.0154605 0.0000
                      *** Initiating the SOSCF procedure ***
                           *** Shutting down DIIS ***
                      *** Re-Reading the Fockian *** 
                      *** Removing any level shift *** 
ITER      Energy       Delta-E        Grad      Rot      Max-DP    RMS-DP
  5   -228.78792415  -0.0008884460  0.000790  0.000790  0.002623  0.000162
               *** Restarting incremental Fock matrix formation ***
  6   -228.78794836  -0.0000242139  0.000620  0.001970  0.002470  0.000119
  7   -228.78794095   0.0000074064  0.001371  0.001470  0.001490  0.000067
  8   -228.78795370  -0.0000127483  0.000169  0.000359  0.000738  0.000030
  9   -228.78795323   0.0000004736  0.000275  0.000230  0.000436  0.000017
 10   -228.78795406  -0.0000008350  0.000018  0.000035  0.000097  0.000004
 11   -228.78795406   0.0000000043  0.000025  0.000020  0.000058  0.000002
                  ***Gradient check signals convergence***
              ***Rediagonalizing the Fockian in SOSCF/NRSCF***

               *****************************************************
               *                     SUCCESS                       *
               *           SCF CONVERGED AFTER  12 CYCLES          *
               *****************************************************

Setting up the final grid:

General Integration Accuracy     IntAcc      ...  4.670
Radial Grid Type                 RadialGrid  ... Gauss-Chebyshev
Angular Grid (max. acc.)         AngularGrid ... Lebedev-302
Angular grid pruning method      GridPruning ... 3 (G Style)
Weight generation scheme         WeightScheme... Becke
Basis function cutoff            BFCut       ...    1.0000e-11
Integration weight cutoff        WCut        ...    1.0000e-14
Grids for H and He will be reduced by one unit

# of grid points (after initial pruning)     ...  38424 (   0.0 sec)
# of grid points (after weights+screening)   ...  36717 (   0.0 sec)
nearest neighbour list constructed           ...    0.0 sec
Grid point re-assignment to atoms done       ...    0.0 sec
Grid point division into batches done        ...    0.1 sec
Reduced shell lists constructed in    0.1 sec

Total number of grid points                  ...    36717
Total number of batches                      ...      578
Average number of points per batch           ...       63
Average number of grid points per atom       ...     4590
Average number of shells per batch           ...    27.11 (75.29%)
Average number of basis functions per batch  ...    57.16 (75.21%)
Average number of large shells per batch     ...    22.52 (83.08%)
Average number of large basis fcns per batch ...    46.65 (81.61%)
Maximum spatial batch extension              ...  19.29, 18.09, 19.37 au
Average spatial batch extension              ...   2.82,  2.97,  2.95 au

Final grid set up in    0.2 sec
Final integration                            ... done (   0.1 sec)
Change in XC energy                          ...    -0.000127187
Integrated number of electrons               ...    31.999989839
Previous integrated no of electrons          ...    32.001082393

----------------
TOTAL SCF ENERGY
----------------

Total Energy       :         -228.78808126 Eh           -6225.64020 eV

Components:
Nuclear Repulsion  :          120.30674173 Eh            3273.71287 eV
Electronic Energy  :         -349.09482299 Eh           -9499.35307 eV
One Electron Energy:         -550.39069813 Eh          -14976.89231 eV
Two Electron Energy:          201.29587514 Eh            5477.53924 eV

Virial components:
Potential Energy   :         -455.63812614 Eh          -12398.54374 eV
Kinetic Energy     :          226.85004488 Eh            6172.90355 eV
Virial Ratio       :            2.00854325


DFT components:
N(Alpha)           :       15.999994919665 electrons
N(Beta)            :       15.999994919665 electrons
N(Total)           :       31.999989839330 electrons
E(X)               :      -22.434620281485 Eh       
E(C)               :       -1.297140069176 Eh       
E(XC)              :      -23.731760350661 Eh       
DFET-embed. en.    :        0.000000000000 Eh       

---------------
SCF CONVERGENCE
---------------

  Last Energy change         ...   -1.1126e-08  Tolerance :   1.0000e-08
  Last MAX-Density change    ...    1.6886e-06  Tolerance :   1.0000e-07
  Last RMS-Density change    ...    1.0489e-07  Tolerance :   5.0000e-09
  Last Orbital Gradient      ...    8.8234e-07  Tolerance :   1.0000e-05
  Last Orbital Rotation      ...    6.8765e-07  Tolerance :   1.0000e-05

             **** THE GBW FILE WAS UPDATED (AcOH.gbw) ****
             **** DENSITY FILE WAS UPDATED (AcOH.scfp) ****
             **** ENERGY FILE WAS UPDATED (AcOH.en.tmp) ****
             **** THE GBW FILE WAS UPDATED (AcOH.gbw) ****
             **** DENSITY FILE WAS UPDATED (AcOH.scfp) ****
----------------
ORBITAL ENERGIES
----------------

  NO   OCC          E(Eh)            E(eV) 
   0   2.0000     -19.172832      -521.7193 
   1   2.0000     -19.105339      -519.8827 
   2   2.0000     -10.315437      -280.6973 
   3   2.0000     -10.205448      -277.7044 
   4   2.0000      -1.080799       -29.4100 
   5   2.0000      -0.986025       -26.8311 
   6   2.0000      -0.747777       -20.3481 
   7   2.0000      -0.628729       -17.1086 
   8   2.0000      -0.485475       -13.2105 
   9   2.0000      -0.464499       -12.6397 
  10   2.0000      -0.457691       -12.4544 
  11   2.0000      -0.408126       -11.1057 
  12   2.0000      -0.391335       -10.6488 
  13   2.0000      -0.370925       -10.0934 
  14   2.0000      -0.308253        -8.3880 
  15   2.0000      -0.262350        -7.1389 
  16   0.0000       0.006607         0.1798 
  17   0.0000       0.046642         1.2692 
  18   0.0000       0.079083         2.1519 
  19   0.0000       0.119640         3.2556 
  20   0.0000       0.139109         3.7853 
  21   0.0000       0.218393         5.9428 
  22   0.0000       0.263409         7.1677 
  23   0.0000       0.310429         8.4472 
  24   0.0000       0.447520        12.1776 
  25   0.0000       0.448429        12.2024 
  26   0.0000       0.501680        13.6514 
  27   0.0000       0.513017        13.9599 
  28   0.0000       0.531365        14.4592 
  29   0.0000       0.601327        16.3630 
  30   0.0000       0.622511        16.9394 
  31   0.0000       0.645051        17.5527 
  32   0.0000       0.646881        17.6025 
  33   0.0000       0.654197        17.8016 
  34   0.0000       0.670245        18.2383 
  35   0.0000       0.822403        22.3787 
  36   0.0000       0.906039        24.6546 
  37   0.0000       0.942621        25.6500 
  38   0.0000       0.978233        26.6191 
  39   0.0000       1.051801        28.6210 
  40   0.0000       1.122828        30.5537 
  41   0.0000       1.193957        32.4892 
  42   0.0000       1.198246        32.6059 
  43   0.0000       1.274026        34.6680 
  44   0.0000       1.403247        38.1843 
  45   0.0000       1.417529        38.5729 
  46   0.0000       1.503690        40.9175 
  47   0.0000       1.536523        41.8109 
  48   0.0000       1.565958        42.6119 
  49   0.0000       1.660048        45.1722 
  50   0.0000       1.703666        46.3591 
  51   0.0000       1.743297        47.4375 
  52   0.0000       1.765348        48.0376 
  53   0.0000       1.806035        49.1447 
  54   0.0000       1.827412        49.7264 
  55   0.0000       1.972430        53.6725 
  56   0.0000       2.049716        55.7756 
  57   0.0000       2.064785        56.1856 
  58   0.0000       2.148123        58.4534 
  59   0.0000       2.275972        61.9324 
  60   0.0000       2.344598        63.7997 
  61   0.0000       2.430995        66.1507 
  62   0.0000       2.541611        69.1608 
  63   0.0000       2.644487        71.9602 
  64   0.0000       2.673690        72.7548 
  65   0.0000       2.726737        74.1983 
  66   0.0000       2.835411        77.1555 
  67   0.0000       2.836611        77.1881 
  68   0.0000       2.869242        78.0760 
  69   0.0000       2.963081        80.6295 
  70   0.0000       3.022113        82.2359 
  71   0.0000       3.204174        87.1900 
  72   0.0000       3.216146        87.5158 
  73   0.0000       3.564252        96.9882 
  74   0.0000       3.576818        97.3302 
  75   0.0000       3.768118       102.5357 

                    ********************************
                    * MULLIKEN POPULATION ANALYSIS *
                    ********************************

-----------------------
MULLIKEN ATOMIC CHARGES
-----------------------
   0 C :    0.011868
   1 C :    0.091323
   2 H :    0.028637
   3 H :    0.061875
   4 H :    0.062140
   5 O :   -0.250019
   6 O :   -0.197899
   7 H :    0.192074
Sum of atomic charges:   -0.0000000

--------------------------------
MULLIKEN REDUCED ORBITAL CHARGES
--------------------------------
  0 C s       :     2.981114  s :     2.981114
      pz      :     1.029040  p :     2.982002
      px      :     0.959691
      py      :     0.993271
      dz2     :     0.005638  d :     0.025015
      dxz     :     0.004737
      dyz     :     0.003274
      dx2y2   :     0.008315
      dxy     :     0.003050
  1 C s       :     3.085821  s :     3.085821
      pz      :     0.821737  p :     2.692853
      px      :     0.986664
      py      :     0.884452
      dz2     :     0.008035  d :     0.130002
      dxz     :     0.011122
      dyz     :     0.025107
      dx2y2   :     0.033963
      dxy     :     0.051775
  2 H s       :     0.948878  s :     0.948878
      pz      :     0.004664  p :     0.022485
      px      :     0.003827
      py      :     0.013993
  3 H s       :     0.914849  s :     0.914849
      pz      :     0.010194  p :     0.023276
      px      :     0.006226
      py      :     0.006856
  4 H s       :     0.914636  s :     0.914636
      pz      :     0.011744  p :     0.023223
      px      :     0.006032
      py      :     0.005448
  5 O s       :     3.748577  s :     3.748577
      pz      :     1.388780  p :     4.483859
      px      :     1.754929
      py      :     1.340150
      dz2     :     0.002063  d :     0.017582
      dxz     :     0.000354
      dyz     :     0.005382
      dx2y2   :     0.005708
      dxy     :     0.004076
  6 O s       :     3.651812  s :     3.651812
      pz      :     1.774054  p :     4.534967
      px      :     1.134806
      py      :     1.626107
      dz2     :     0.001754  d :     0.011120
      dxz     :     0.000563
      dyz     :     0.001892
      dx2y2   :     0.002226
      dxy     :     0.004685
  7 H s       :     0.742627  s :     0.742627
      pz      :     0.015522  p :     0.065299
      px      :     0.035301
      py      :     0.014476


                     *******************************
                     * LOEWDIN POPULATION ANALYSIS *
                     *******************************

----------------------
LOEWDIN ATOMIC CHARGES
----------------------
   0 C :   -0.072377
   1 C :    0.085129
   2 H :    0.035891
   3 H :    0.056052
   4 H :    0.056022
   5 O :   -0.207443
   6 O :   -0.054715
   7 H :    0.101442

-------------------------------
LOEWDIN REDUCED ORBITAL CHARGES
-------------------------------
  0 C s       :     2.852647  s :     2.852647
      pz      :     1.070228  p :     3.152580
      px      :     1.020400
      py      :     1.061952
      dz2     :     0.015063  d :     0.067150
      dxz     :     0.012840
      dyz     :     0.007570
      dx2y2   :     0.022595
      dxy     :     0.009081
  1 C s       :     2.857392  s :     2.857392
      pz      :     0.805462  p :     2.774717
      px      :     0.980475
      py      :     0.988780
      dz2     :     0.017596  d :     0.282763
      dxz     :     0.019845
      dyz     :     0.048769
      dx2y2   :     0.078073
      dxy     :     0.118479
  2 H s       :     0.899599  s :     0.899599
      pz      :     0.012185  p :     0.064511
      px      :     0.011680
      py      :     0.040645
  3 H s       :     0.880190  s :     0.880190
      pz      :     0.028125  p :     0.063758
      px      :     0.017835
      py      :     0.017799
  4 H s       :     0.880243  s :     0.880243
      pz      :     0.033103  p :     0.063735
      px      :     0.017280
      py      :     0.013353
  5 O s       :     3.558599  s :     3.558599
      pz      :     1.390107  p :     4.618676
      px      :     1.756992
      py      :     1.471576
      dz2     :     0.004250  d :     0.030168
      dxz     :     0.000436
      dyz     :     0.006908
      dx2y2   :     0.011574
      dxy     :     0.007000
  6 O s       :     3.402890  s :     3.402890
      pz      :     1.730072  p :     4.627909
      px      :     1.240341
      py      :     1.657496
      dz2     :     0.003820  d :     0.023916
      dxz     :     0.001328
      dyz     :     0.002134
      dx2y2   :     0.006005
      dxy     :     0.010630
  7 H s       :     0.723910  s :     0.723910
      pz      :     0.044112  p :     0.174648
      px      :     0.088729
      py      :     0.041808


                      *****************************
                      * MAYER POPULATION ANALYSIS *
                      *****************************

  NA   - Mulliken gross atomic population
  ZA   - Total nuclear charge
  QA   - Mulliken gross atomic charge
  VA   - Mayer's total valence
  BVA  - Mayer's bonded valence
  FA   - Mayer's free valence

  ATOM       NA         ZA         QA         VA         BVA        FA
  0 C      5.9881     6.0000     0.0119     3.8793     3.8793    -0.0000
  1 C      5.9087     6.0000     0.0913     4.4314     4.4314    -0.0000
  2 H      0.9714     1.0000     0.0286     0.9994     0.9994     0.0000
  3 H      0.9381     1.0000     0.0619     1.0004     1.0004    -0.0000
  4 H      0.9379     1.0000     0.0621     1.0001     1.0001    -0.0000
  5 O      8.2500     8.0000    -0.2500     2.2004     2.2004    -0.0000
  6 O      8.1979     8.0000    -0.1979     2.2170     2.2170    -0.0000
  7 H      0.8079     1.0000     0.1921     1.0180     1.0180    -0.0000

  Mayer bond orders larger than 0.100000
B(  0-C ,  1-C ) :   1.0338 B(  0-C ,  2-H ) :   0.9516 B(  0-C ,  3-H ) :   0.9551 
B(  0-C ,  4-H ) :   0.9554 B(  1-C ,  5-O ) :   2.0726 B(  1-C ,  6-O ) :   1.2184 
B(  6-O ,  7-H ) :   0.9334 

-------
TIMINGS
-------

Total SCF time: 0 days 0 hours 0 min 4 sec 

Total time                  ....       4.085 sec
Sum of individual times     ....       3.921 sec  ( 96.0%)

Fock matrix formation       ....       3.605 sec  ( 88.2%)
  XC integration            ....       0.589 sec  ( 16.3% of F)
    Basis function eval.    ....       0.193 sec  ( 32.8% of XC)
    Density eval.           ....       0.142 sec  ( 24.1% of XC)
    XC-Functional eval.     ....       0.061 sec  ( 10.4% of XC)
    XC-Potential eval.      ....       0.124 sec  ( 21.1% of XC)
Diagonalization             ....       0.002 sec  (  0.0%)
Density matrix formation    ....       0.000 sec  (  0.0%)
Population analysis         ....       0.003 sec  (  0.1%)
Initial guess               ....       0.106 sec  (  2.6%)
Orbital Transformation      ....       0.000 sec  (  0.0%)
Orbital Orthonormalization  ....       0.000 sec  (  0.0%)
DIIS solution               ....       0.002 sec  (  0.0%)
SOSCF solution              ....       0.009 sec  (  0.2%)
Grid generation             ....       0.194 sec  (  4.7%)

-------------------------   --------------------
FINAL SINGLE POINT ENERGY      -228.788081256326
-------------------------   --------------------

------------------------------------------------------------------------------
                         ORCA SCF GRADIENT CALCULATION
------------------------------------------------------------------------------

Gradient of the Kohn-Sham DFT energy:
Kohn-Sham wavefunction type      ... RKS
Hartree-Fock exchange scaling    ...    0.200
Number of operators              ...    1
Number of atoms                  ...    8
Basis set dimensions             ...   76
Integral neglect threshold       ... 2.5e-11
Integral primitive cutoff        ... 2.5e-12

Nuclear repulsion gradient       ... done
One Electron Gradient            ... done
Pre-screening matrix             ... done
Starting the two electron gradient:
Two electron gradient done
Exchange-correlation gradient    ... done

------------------
CARTESIAN GRADIENT
------------------

   1   C   :    0.002931572    0.028796034    0.003975767
   2   C   :   -0.036846499   -0.054504263   -0.006750866
   3   H   :    0.003450475   -0.005946266   -0.000838150
   4   H   :   -0.004141947    0.001051640   -0.006401664
   5   H   :   -0.003874920   -0.000759760    0.006349020
   6   O   :    0.004051212    0.014909913    0.001919767
   7   O   :    0.027189841    0.036458198    0.004473554
   8   H   :    0.007240266   -0.020005496   -0.002727428

Difference to translation invariance:
           :    0.0000000000   -0.0000000000    0.0000000000

Norm of the cartesian gradient     ...    0.0904525355
RMS gradient                       ...    0.0184635465
MAX gradient                       ...    0.0545042630

-------
TIMINGS
-------

Total SCF gradient time            ...        1.552 sec

One electron gradient       ....       0.010 sec  (  0.6%)
Prescreening matrices       ....       0.014 sec  (  0.9%)
Two electron gradient       ....       0.694 sec  ( 44.7%)
XC gradient                 ....       0.740 sec  ( 47.7%)
------------------------------------------------------------------------------
                         ORCA GEOMETRY RELAXATION STEP
------------------------------------------------------------------------------

Reading the OPT-File                    .... done
Getting information on internals        .... done
Copying old internal coords+grads       .... done
Making the new internal coordinates     .... (new redundants).... done
Validating the new internal coordinates .... (new redundants).... done
Calculating the B-matrix                .... done
Calculating the G,G- and P matrices     .... done
Transforming gradient to internals      .... done
Projecting the internal gradient        .... done
Number of atoms                         ....   8
Number of internal coordinates          ....  25
Current Energy                          ....  -228.788081256 Eh
Current gradient norm                   ....     0.090452535 Eh/bohr
Maximum allowed component of the step   ....  0.300
Current trust radius                    ....  0.300
Evaluating the initial hessian          ....  (Almloef) done
Projecting the Hessian                  .... done
Forming the augmented Hessian           .... done
Diagonalizing the augmented Hessian     .... done
Last element of RFO vector              ....  0.988289900
Lowest eigenvalues of augmented Hessian:
 -0.009449258  0.013360133  0.017806618  0.031072813  0.134893395
Length of the computed step             ....  0.154395910
The final length of the internal step   ....  0.154395910
Converting the step to cartesian space:
 Initial RMS(Int)=    0.0308791820
Transforming coordinates:
 Iter   0:  RMS(Cart)=    0.0394018095 RMS(Int)=    1.2569491953
 Iter   1:  RMS(Cart)=    0.0011627951 RMS(Int)=    0.0009022500
 Iter   2:  RMS(Cart)=    0.0000511137 RMS(Int)=    0.0000374328
 Iter   3:  RMS(Cart)=    0.0000029139 RMS(Int)=    0.0000023574
 Iter   4:  RMS(Cart)=    0.0000001349 RMS(Int)=    0.0000000986
 Iter   5:  RMS(Cart)=    0.0000000075 RMS(Int)=    0.0000000062
done
Storing new coordinates                 .... done

                                .--------------------.
          ----------------------|Geometry convergence|-------------------------
          Item                value                   Tolerance       Converged
          ---------------------------------------------------------------------
          RMS gradient        0.0126112808            0.0001000000      NO
          MAX gradient        0.0390935566            0.0003000000      NO
          RMS step            0.0308791820            0.0020000000      NO
          MAX step            0.1027126227            0.0040000000      NO
          ........................................................
          Max(Bonds)      0.0112      Max(Angles)    5.88
          Max(Dihed)        0.84      Max(Improp)    0.00
          ---------------------------------------------------------------------

The optimization has not yet converged - more geometry cycles are needed


    ---------------------------------------------------------------------------
                         Redundant Internal Coordinates
                            (Angstroem and degrees)

        Definition                    Value    dE/dq     Step     New-Value
    ----------------------------------------------------------------------------
     1. B(C   1,C   0)                1.4948 -0.005184  0.0063    1.5011   
     2. B(H   2,C   0)                1.1104  0.005791 -0.0089    1.1015   
     3. B(H   3,C   0)                1.1102  0.007254 -0.0112    1.0990   
     4. B(H   4,C   0)                1.1102  0.007019 -0.0108    1.0994   
     5. B(O   5,C   1)                1.2217  0.015563 -0.0079    1.2138   
     6. B(O   6,C   1)                1.3498  0.013771 -0.0111    1.3388   
     7. B(H   7,O   6)                0.9678  0.001520 -0.0016    0.9662   
     8. A(C   1,C   0,H   2)          110.33 -0.007640    1.56    111.89   
     9. A(C   1,C   0,H   4)          109.69  0.003375   -0.70    108.99   
    10. A(H   2,C   0,H   4)          108.92  0.000372    0.23    109.15   
    11. A(C   1,C   0,H   3)          109.69  0.003379   -0.70    108.99   
    12. A(H   3,C   0,H   4)          109.28  0.000138   -0.62    108.66   
    13. A(H   2,C   0,H   3)          108.92  0.000386    0.22    109.14   
    14. A(C   0,C   1,O   5)          119.87 -0.016457    2.26    122.13   
    15. A(O   5,C   1,O   6)          120.14 -0.017701    2.26    122.40   
    16. A(C   0,C   1,O   6)          120.00  0.034158   -4.52    115.48   
    17. A(C   1,O   6,H   7)          121.13  0.039094   -5.88    115.24   
    18. D(O   5,C   1,C   0,H   2)    180.00 -0.000003    0.02    180.02   
    19. D(O   6,C   1,C   0,H   2)     -0.00  0.000012   -0.01     -0.01   
    20. D(O   5,C   1,C   0,H   3)     60.02  0.002166   -0.79     59.22   
    21. D(O   6,C   1,C   0,H   3)   -119.98  0.002181   -0.82   -120.81   
    22. D(O   6,C   1,C   0,H   4)    119.98 -0.002177    0.81    120.79   
    23. D(O   5,C   1,C   0,H   4)    -60.02 -0.002192    0.84    -59.18   
    24. D(H   7,O   6,C   1,C   0)    180.00  0.000017   -0.02    179.98   
    25. D(H   7,O   6,C   1,O   5)     -0.00  0.000032   -0.05     -0.05   
    ----------------------------------------------------------------------------

         *************************************************************
         *                GEOMETRY OPTIMIZATION CYCLE   2            *
         *************************************************************
---------------------------------
CARTESIAN COORDINATES (ANGSTROEM)
---------------------------------
  C     -8.218380    1.740101   -0.006400
  C     -6.792457    2.207022    0.037725
  H     -8.289426    0.650447   -0.151066
  H     -8.735305    2.247804   -0.832741
  H     -8.712874    2.011575    0.937195
  O     -6.500196    3.375210    0.190382
  O     -5.868084    1.248709   -0.101866
  H     -4.951500    1.553072   -0.073228

----------------------------
CARTESIAN COORDINATES (A.U.)
----------------------------
  NO LB      ZA    FRAG     MASS         X           Y           Z
   0 C     6.0000    0    12.011  -15.530487    3.288315   -0.012095
   1 C     6.0000    0    12.011  -12.835884    4.170667    0.071289
   2 H     1.0000    0     1.008  -15.664744    1.229166   -0.285474
   3 H     1.0000    0     1.008  -16.507335    4.247735   -1.573652
   4 H     1.0000    0     1.008  -16.464945    3.801327    1.771041
   5 O     8.0000    0    15.999  -12.283589    6.378222    0.359770
   6 O     8.0000    0    15.999  -11.089071    2.359717   -0.192499
   7 H     1.0000    0     1.008   -9.356978    2.934881   -0.138380

--------------------------------
INTERNAL COORDINATES (ANGSTROEM)
--------------------------------
 C      0   0   0     0.000000000000     0.00000000     0.00000000
 C      1   0   0     1.501071878801     0.00000000     0.00000000
 H      1   2   0     1.101509586953   111.89091995     0.00000000
 H      1   2   3     1.099005361850   108.97855977   239.21025711
 H      1   2   3     1.099360745782   108.98011322   120.79746731
 O      2   1   3     1.213830381822   122.12584747   180.01831598
 O      2   1   3     1.338774199535   115.47838983     0.00000000
 H      7   2   1     0.966221168408   115.24037548   179.98123467

---------------------------
INTERNAL COORDINATES (A.U.)
---------------------------
 C      0   0   0     0.000000000000     0.00000000     0.00000000
 C      1   0   0     2.836614758264     0.00000000     0.00000000
 H      1   2   0     2.081551453229   111.89091995     0.00000000
 H      1   2   3     2.076819153608   108.97855977   239.21025711
 H      1   2   3     2.077490731912   108.98011322   120.79746731
 O      2   1   3     2.293806994677   122.12584747   180.01831598
 O      2   1   3     2.529916592280   115.47838983     0.00000000
 H      7   2   1     1.825893393089   115.24037548   179.98123467


Diagonalization of the overlap matrix:
Smallest eigenvalue                        ... 3.562e-03
Time for diagonalization                   ...    0.001 sec
Threshold for overlap eigenvalues          ... 1.000e-08
Number of eigenvalues below threshold      ... 0
Time for construction of square roots      ...    0.001 sec
Total time needed                          ...    0.002 sec

-------------------
DFT GRID GENERATION
-------------------

General Integration Accuracy     IntAcc      ...  4.340
Radial Grid Type                 RadialGrid  ... Gauss-Chebyshev
Angular Grid (max. acc.)         AngularGrid ... Lebedev-110
Angular grid pruning method      GridPruning ... 3 (G Style)
Weight generation scheme         WeightScheme... Becke
Basis function cutoff            BFCut       ...    1.0000e-11
Integration weight cutoff        WCut        ...    1.0000e-14
Grids for H and He will be reduced by one unit

# of grid points (after initial pruning)     ...   9920 (   0.0 sec)
# of grid points (after weights+screening)   ...   9564 (   0.0 sec)
nearest neighbour list constructed           ...    0.0 sec
Grid point re-assignment to atoms done       ...    0.0 sec
Grid point division into batches done        ...    0.0 sec
Reduced shell lists constructed in    0.0 sec

Total number of grid points                  ...     9564
Total number of batches                      ...      155
Average number of points per batch           ...       61
Average number of grid points per atom       ...     1196
Average number of shells per batch           ...    29.76 (82.67%)
Average number of basis functions per batch  ...    63.30 (83.29%)
Average number of large shells per batch     ...    25.07 (84.23%)
Average number of large basis fcns per batch ...    52.40 (82.78%)
Maximum spatial batch extension              ...  17.24, 25.60, 25.60 au
Average spatial batch extension              ...   4.12,  4.31,  4.36 au

Time for grid setup =    0.029 sec

--------------
SCF ITERATIONS
--------------
ITER       Energy         Delta-E        Max-DP      RMS-DP      [F,P]     Damp
               ***  Starting incremental Fock matrix formation  ***
  0   -228.7935045603   0.000000000000 0.00427514  0.00029758  0.0156123 0.7000
                      *** Initiating the SOSCF procedure ***
                      *** Re-Reading the Fockian *** 
                      *** Removing any level shift *** 
ITER      Energy       Delta-E        Grad      Rot      Max-DP    RMS-DP
  1   -228.79395430  -0.0004497428  0.001843  0.001843  0.013007  0.000885
               *** Restarting incremental Fock matrix formation ***
  2   -228.79505884  -0.0011045355  0.001716  0.004750  0.007000  0.000347
  3   -228.79500325   0.0000555902  0.004258  0.004331  0.005220  0.000182
  4   -228.79509811  -0.0000948573  0.000235  0.000458  0.001284  0.000053
  5   -228.79509811  -0.0000000087  0.000275  0.000253  0.000611  0.000028
  6   -228.79509972  -0.0000016061  0.000032  0.000040  0.000107  0.000004
  7   -228.79509971   0.0000000072  0.000050  0.000026  0.000068  0.000003
  8   -228.79509973  -0.0000000194  0.000004  0.000007  0.000013  0.000001
  9   -228.79509973  -0.0000000001  0.000003  0.000002  0.000007  0.000000
                 **** Energy Check signals convergence ****
              ***Rediagonalizing the Fockian in SOSCF/NRSCF***

               *****************************************************
               *                     SUCCESS                       *
               *           SCF CONVERGED AFTER  10 CYCLES          *
               *****************************************************

Setting up the final grid:

General Integration Accuracy     IntAcc      ...  4.670
Radial Grid Type                 RadialGrid  ... Gauss-Chebyshev
Angular Grid (max. acc.)         AngularGrid ... Lebedev-302
Angular grid pruning method      GridPruning ... 3 (G Style)
Weight generation scheme         WeightScheme... Becke
Basis function cutoff            BFCut       ...    1.0000e-11
Integration weight cutoff        WCut        ...    1.0000e-14
Grids for H and He will be reduced by one unit

# of grid points (after initial pruning)     ...  38424 (   0.0 sec)
# of grid points (after weights+screening)   ...  36704 (   0.0 sec)
nearest neighbour list constructed           ...    0.0 sec
Grid point re-assignment to atoms done       ...    0.0 sec
Grid point division into batches done        ...    0.1 sec
Reduced shell lists constructed in    0.1 sec

Total number of grid points                  ...    36704
Total number of batches                      ...      578
Average number of points per batch           ...       63
Average number of grid points per atom       ...     4588
Average number of shells per batch           ...    27.24 (75.68%)
Average number of basis functions per batch  ...    57.49 (75.65%)
Average number of large shells per batch     ...    22.66 (83.16%)
Average number of large basis fcns per batch ...    46.95 (81.66%)
Maximum spatial batch extension              ...  19.17, 18.89, 19.37 au
Average spatial batch extension              ...   2.85,  2.93,  2.97 au

Final grid set up in    0.2 sec
Final integration                            ... done (   0.1 sec)
Change in XC energy                          ...     0.000041880
Integrated number of electrons               ...    31.999985213
Previous integrated no of electrons          ...    32.001883018
Total Energy       :         -228.79505785 Eh           -6225.83004 eV
  Last Energy change         ...   -2.0989e-10  Tolerance :   1.0000e-08
  Last MAX-Density change    ...    1.3064e-06  Tolerance :   1.0000e-07
             **** THE GBW FILE WAS UPDATED (AcOH.gbw) ****
             **** DENSITY FILE WAS UPDATED (AcOH.scfp) ****
             **** ENERGY FILE WAS UPDATED (AcOH.en.tmp) ****
             **** THE GBW FILE WAS UPDATED (AcOH.gbw) ****
             **** DENSITY FILE WAS UPDATED (AcOH.scfp) ****
Total SCF time: 0 days 0 hours 0 min 3 sec 

-------------------------   --------------------
FINAL SINGLE POINT ENERGY      -228.795057853449
-------------------------   --------------------

------------------------------------------------------------------------------
                         ORCA SCF GRADIENT CALCULATION
------------------------------------------------------------------------------

Gradient of the Kohn-Sham DFT energy:
Kohn-Sham wavefunction type      ... RKS
Hartree-Fock exchange scaling    ...    0.200
Number of operators              ...    1
Number of atoms                  ...    8
Basis set dimensions             ...   76
Integral neglect threshold       ... 2.5e-11
Integral primitive cutoff        ... 2.5e-12

Nuclear repulsion gradient       ... done
One Electron Gradient            ... done
Pre-screening matrix             ... done
Starting the two electron gradient:
Two electron gradient done
Exchange-correlation gradient    ... done

------------------
CARTESIAN GRADIENT
------------------

   1   C   :   -0.000747690    0.015489144    0.002097913
   2   C   :   -0.012782421   -0.030652848   -0.003959428
   3   H   :    0.000687346   -0.001531493   -0.000226027
   4   H   :    0.000427464   -0.001715341   -0.000638328
   5   H   :    0.000429252   -0.001836714    0.000143307
   6   O   :    0.000133586    0.008474839    0.001149805
   7   O   :    0.010823117    0.025143746    0.003209579
   8   H   :    0.001029345   -0.013371334   -0.001776821

Difference to translation invariance:
           :    0.0000000000    0.0000000000   -0.0000000000

Norm of the cartesian gradient     ...    0.0488808700
RMS gradient                       ...    0.0099777658
MAX gradient                       ...    0.0306528480

-------
TIMINGS
-------

Total SCF gradient time            ...        1.458 sec

One electron gradient       ....       0.011 sec  (  0.8%)
Prescreening matrices       ....       0.015 sec  (  1.0%)
Two electron gradient       ....       0.672 sec  ( 46.1%)
XC gradient                 ....       0.669 sec  ( 45.9%)
------------------------------------------------------------------------------
                         ORCA GEOMETRY RELAXATION STEP
------------------------------------------------------------------------------

Reading the OPT-File                    .... done
Getting information on internals        .... done
Copying old internal coords+grads       .... done
Making the new internal coordinates     .... (new redundants).... done
Validating the new internal coordinates .... (new redundants).... done
Calculating the B-matrix                .... done
Calculating the G,G- and P matrices     .... done
Transforming gradient to internals      .... done
Projecting the internal gradient        .... done
Number of atoms                         ....   8
Number of internal coordinates          ....  25
Current Energy                          ....  -228.795057853 Eh
Current gradient norm                   ....     0.048880870 Eh/bohr
Maximum allowed component of the step   ....  0.300
Current trust radius                    ....  0.300
Updating the Hessian (BFGS)             .... done
Forming the augmented Hessian           .... done
Diagonalizing the augmented Hessian     .... done
Last element of RFO vector              ....  0.986944677
Lowest eigenvalues of augmented Hessian:
 -0.004966441  0.013360132  0.017806806  0.031072792  0.129895934
Length of the computed step             ....  0.163190131
The final length of the internal step   ....  0.163190131
Converting the step to cartesian space:
 Initial RMS(Int)=    0.0326380262
Transforming coordinates:
 Iter   0:  RMS(Cart)=    0.0384871382 RMS(Int)=    1.2569779651
 Iter   1:  RMS(Cart)=    0.0016485972 RMS(Int)=    0.0012922440
 Iter   2:  RMS(Cart)=    0.0000706579 RMS(Int)=    0.0000646949
 Iter   3:  RMS(Cart)=    0.0000076779 RMS(Int)=    0.0000064557
 Iter   4:  RMS(Cart)=    0.0000003714 RMS(Int)=    0.0000003545
 Iter   5:  RMS(Cart)=    0.0000000405 RMS(Int)=    0.0000000336
done
Storing new coordinates                 .... done

                                .--------------------.
          ----------------------|Geometry convergence|-------------------------
          Item                value                   Tolerance       Converged
          ---------------------------------------------------------------------
          Energy change      -0.0069765971            0.0000050000      NO
          RMS gradient        0.0062697639            0.0001000000      NO
          MAX gradient        0.0239301490            0.0003000000      NO
          RMS step            0.0326380262            0.0020000000      NO
          MAX step            0.1285284029            0.0040000000      NO
          ........................................................
          Max(Bonds)      0.0099      Max(Angles)    7.36
          Max(Dihed)        0.97      Max(Improp)    0.00
          ---------------------------------------------------------------------

The optimization has not yet converged - more geometry cycles are needed


    ---------------------------------------------------------------------------
                         Redundant Internal Coordinates
                            (Angstroem and degrees)

        Definition                    Value    dE/dq     Step     New-Value
    ----------------------------------------------------------------------------
     1. B(C   1,C   0)                1.5011 -0.004028  0.0099    1.5109   
     2. B(H   2,C   0)                1.1015  0.001508 -0.0053    1.0962   
     3. B(H   3,C   0)                1.0990 -0.000520  0.0004    1.0994   
     4. B(H   4,C   0)                1.0994 -0.000524  0.0004    1.0998   
     5. B(O   5,C   1)                1.2138  0.008336 -0.0088    1.2051   
     6. B(O   6,C   1)                1.3388 -0.000408 -0.0006    1.3381   
     7. B(H   7,O   6)                0.9662 -0.003280  0.0061    0.9724   
     8. A(C   1,C   0,H   2)          111.89 -0.002074    1.08    112.97   
     9. A(C   1,C   0,H   4)          108.98  0.000991   -0.52    108.46   
    10. A(H   2,C   0,H   4)          109.15 -0.000409    0.47    109.61   
    11. A(C   1,C   0,H   3)          108.98  0.000979   -0.51    108.47   
    12. A(H   3,C   0,H   4)          108.65  0.001009   -1.02    107.62   
    13. A(H   2,C   0,H   3)          109.14 -0.000407    0.47    109.61   
    14. A(C   0,C   1,O   5)          122.13 -0.009152    2.53    124.66   
    15. A(O   5,C   1,O   6)          122.40 -0.004695    1.39    123.79   
    16. A(C   0,C   1,O   6)          115.48  0.013846   -3.92    111.55   
    17. A(C   1,O   6,H   7)          115.24  0.023930   -7.36    107.88   
    18. D(O   5,C   1,C   0,H   2)   -179.98  0.000002   -0.02   -180.00   
    19. D(O   6,C   1,C   0,H   2)     -0.01 -0.000009    0.04      0.03   
    20. D(O   5,C   1,C   0,H   3)     59.23  0.001181   -0.95     58.28   
    21. D(O   6,C   1,C   0,H   3)   -120.80  0.001169   -0.89   -121.69   
    22. D(O   6,C   1,C   0,H   4)    120.78 -0.001183    0.97    121.76   
    23. D(O   5,C   1,C   0,H   4)    -59.18 -0.001171    0.91    -58.28   
    24. D(H   7,O   6,C   1,C   0)    179.98  0.000016   -0.06    179.92   
    25. D(H   7,O   6,C   1,O   5)     -0.05  0.000003    0.01     -0.04   
    ----------------------------------------------------------------------------

         *************************************************************
         *                GEOMETRY OPTIMIZATION CYCLE   3            *
         *************************************************************
---------------------------------
CARTESIAN COORDINATES (ANGSTROEM)
---------------------------------
  C     -8.206102    1.727064   -0.008260
  C     -6.779515    2.222449    0.040148
  H     -8.277736    0.642657   -0.152107
  H     -8.726037    2.243085   -0.828036
  H     -8.704372    2.008569    0.930896
  O     -6.458810    3.374371    0.189849
  O     -5.905642    1.219543   -0.105225
  H     -5.010006    1.596201   -0.067265

----------------------------
CARTESIAN COORDINATES (A.U.)
----------------------------
  NO LB      ZA    FRAG     MASS         X           Y           Z
   0 C     6.0000    0    12.011  -15.507285    3.263679   -0.015609
   1 C     6.0000    0    12.011  -12.811427    4.199819    0.075869
   2 H     1.0000    0     1.008  -15.642653    1.214447   -0.287441
   3 H     1.0000    0     1.008  -16.489821    4.238815   -1.564762
   4 H     1.0000    0     1.008  -16.448878    3.795646    1.759138
   5 O     8.0000    0    15.999  -12.205383    6.376637    0.358763
   6 O     8.0000    0    15.999  -11.160046    2.304603   -0.198847
   7 H     1.0000    0     1.008   -9.467540    3.016383   -0.127111

--------------------------------
INTERNAL COORDINATES (ANGSTROEM)
--------------------------------
 C      0   0   0     0.000000000000     0.00000000     0.00000000
 C      1   0   0     1.510926315134     0.00000000     0.00000000
 H      1   2   0     1.096248954151   112.96864234     0.00000000
 H      1   2   3     1.099383356022   108.45338825   238.28931980
 H      1   2   3     1.099786735037   108.45075472   121.71594194
 O      2   1   3     1.205067368963   124.65705423   179.99625130
 O      2   1   3     1.338135265460   111.55465320     0.03037737
 H      7   2   1     0.972355387527   107.87624004   179.92477221

---------------------------
INTERNAL COORDINATES (A.U.)
---------------------------
 C      0   0   0     0.000000000000     0.00000000     0.00000000
 C      1   0   0     2.855236944137     0.00000000     0.00000000
 H      1   2   0     2.071610297944   112.96864234     0.00000000
 H      1   2   3     2.077533459073   108.45338825   238.28931980
 H      1   2   3     2.078295734939   108.45075472   121.71594194
 O      2   1   3     2.277247300265   124.65705423   179.99625130
 O      2   1   3     2.528709181861   111.55465320     0.03037737
 H      7   2   1     1.837485387269   107.87624004   179.92477221


Diagonalization of the overlap matrix:
Smallest eigenvalue                        ... 3.634e-03
Time for diagonalization                   ...    0.001 sec
Threshold for overlap eigenvalues          ... 1.000e-08
Number of eigenvalues below threshold      ... 0
Time for construction of square roots      ...    0.001 sec
Total time needed                          ...    0.002 sec

-------------------
DFT GRID GENERATION
-------------------

General Integration Accuracy     IntAcc      ...  4.340
Radial Grid Type                 RadialGrid  ... Gauss-Chebyshev
Angular Grid (max. acc.)         AngularGrid ... Lebedev-110
Angular grid pruning method      GridPruning ... 3 (G Style)
Weight generation scheme         WeightScheme... Becke
Basis function cutoff            BFCut       ...    1.0000e-11
Integration weight cutoff        WCut        ...    1.0000e-14
Grids for H and He will be reduced by one unit

# of grid points (after initial pruning)     ...   9920 (   0.0 sec)
# of grid points (after weights+screening)   ...   9565 (   0.0 sec)
nearest neighbour list constructed           ...    0.0 sec
Grid point re-assignment to atoms done       ...    0.0 sec
Grid point division into batches done        ...    0.0 sec
Reduced shell lists constructed in    0.0 sec

Total number of grid points                  ...     9565
Total number of batches                      ...      155
Average number of points per batch           ...       61
Average number of grid points per atom       ...     1196
Average number of shells per batch           ...    29.86 (82.94%)
Average number of basis functions per batch  ...    63.51 (83.57%)
Average number of large shells per batch     ...    25.18 (84.33%)
Average number of large basis fcns per batch ...    52.55 (82.74%)
Maximum spatial batch extension              ...  17.15, 25.60, 25.60 au
Average spatial batch extension              ...   4.17,  4.31,  4.37 au

Time for grid setup =    0.029 sec

--------------
SCF ITERATIONS
--------------
ITER       Energy         Delta-E        Max-DP      RMS-DP      [F,P]     Damp
               ***  Starting incremental Fock matrix formation  ***
  0   -228.7956829611   0.000000000000 0.00551136  0.00034424  0.0196818 0.7000
                      *** Initiating the SOSCF procedure ***
                      *** Re-Reading the Fockian *** 
                      *** Removing any level shift *** 
ITER      Energy       Delta-E        Grad      Rot      Max-DP    RMS-DP
  1   -228.79625917  -0.0005762127  0.001983  0.001983  0.015756  0.001020
               *** Restarting incremental Fock matrix formation ***
  2   -228.79767308  -0.0014139070  0.002111  0.006369  0.008251  0.000383
  3   -228.79756788   0.0001052003  0.005509  0.005256  0.006188  0.000225
  4   -228.79772643  -0.0001585511  0.000216  0.000429  0.001099  0.000031
  5   -228.79772627   0.0000001580  0.000281  0.000256  0.000552  0.000016
  6   -228.79772697  -0.0000006948  0.000047  0.000039  0.000106  0.000005
  7   -228.79772696   0.0000000045  0.000051  0.000022  0.000054  0.000003
                  ***Gradient check signals convergence***
              ***Rediagonalizing the Fockian in SOSCF/NRSCF***

               *****************************************************
               *                     SUCCESS                       *
               *           SCF CONVERGED AFTER   8 CYCLES          *
               *****************************************************

Setting up the final grid:

General Integration Accuracy     IntAcc      ...  4.670
Radial Grid Type                 RadialGrid  ... Gauss-Chebyshev
Angular Grid (max. acc.)         AngularGrid ... Lebedev-302
Angular grid pruning method      GridPruning ... 3 (G Style)
Weight generation scheme         WeightScheme... Becke
Basis function cutoff            BFCut       ...    1.0000e-11
Integration weight cutoff        WCut        ...    1.0000e-14
Grids for H and He will be reduced by one unit

# of grid points (after initial pruning)     ...  38424 (   0.0 sec)
# of grid points (after weights+screening)   ...  36699 (   0.0 sec)
nearest neighbour list constructed           ...    0.0 sec
Grid point re-assignment to atoms done       ...    0.0 sec
Grid point division into batches done        ...    0.1 sec
Reduced shell lists constructed in    0.1 sec

Total number of grid points                  ...    36699
Total number of batches                      ...      578
Average number of points per batch           ...       63
Average number of grid points per atom       ...     4587
Average number of shells per batch           ...    27.25 (75.71%)
Average number of basis functions per batch  ...    57.53 (75.70%)
Average number of large shells per batch     ...    22.69 (83.25%)
Average number of large basis fcns per batch ...    47.02 (81.73%)
Maximum spatial batch extension              ...  19.07, 18.08, 18.45 au
Average spatial batch extension              ...   2.86,  2.93,  2.97 au

Final grid set up in    0.2 sec
Final integration                            ... done (   0.1 sec)
Change in XC energy                          ...     0.000202243
Integrated number of electrons               ...    31.999988644
Previous integrated no of electrons          ...    32.002509202
Total Energy       :         -228.79752474 Eh           -6225.89717 eV
  Last Energy change         ...   -2.2105e-08  Tolerance :   1.0000e-08
  Last MAX-Density change    ...    7.1727e-06  Tolerance :   1.0000e-07
             **** THE GBW FILE WAS UPDATED (AcOH.gbw) ****
             **** DENSITY FILE WAS UPDATED (AcOH.scfp) ****
             **** ENERGY FILE WAS UPDATED (AcOH.en.tmp) ****
             **** THE GBW FILE WAS UPDATED (AcOH.gbw) ****
             **** DENSITY FILE WAS UPDATED (AcOH.scfp) ****
Total SCF time: 0 days 0 hours 0 min 3 sec 

-------------------------   --------------------
FINAL SINGLE POINT ENERGY      -228.797524742909
-------------------------   --------------------

------------------------------------------------------------------------------
                         ORCA SCF GRADIENT CALCULATION
------------------------------------------------------------------------------

Gradient of the Kohn-Sham DFT energy:
Kohn-Sham wavefunction type      ... RKS
Hartree-Fock exchange scaling    ...    0.200
Number of operators              ...    1
Number of atoms                  ...    8
Basis set dimensions             ...   76
Integral neglect threshold       ... 2.5e-11
Integral primitive cutoff        ... 2.5e-12

Nuclear repulsion gradient       ... done
One Electron Gradient            ... done
Pre-screening matrix             ... done
Starting the two electron gradient:
Two electron gradient done
Exchange-correlation gradient    ... done

------------------
CARTESIAN GRADIENT
------------------

   1   C   :    0.000743699   -0.001069820   -0.000218323
   2   C   :    0.008956041   -0.002370693   -0.000312400
   3   H   :   -0.001175125    0.000723401    0.000095871
   4   H   :    0.001153477   -0.000783283    0.000032336
   5   H   :    0.001147918   -0.000749952   -0.000245741
   6   O   :   -0.002854000   -0.000057769   -0.000013012
   7   O   :   -0.007308125    0.006060398    0.000891339
   8   H   :   -0.000663885   -0.001752282   -0.000230071

Difference to translation invariance:
           :   -0.0000000000   -0.0000000000   -0.0000000000

Norm of the cartesian gradient     ...    0.0140041901
RMS gradient                       ...    0.0028585933
MAX gradient                       ...    0.0089560407

-------
TIMINGS
-------

Total SCF gradient time            ...        1.522 sec

One electron gradient       ....       0.010 sec  (  0.7%)
Prescreening matrices       ....       0.015 sec  (  1.0%)
Two electron gradient       ....       0.683 sec  ( 44.9%)
XC gradient                 ....       0.722 sec  ( 47.4%)
------------------------------------------------------------------------------
                         ORCA GEOMETRY RELAXATION STEP
------------------------------------------------------------------------------

Reading the OPT-File                    .... done
Getting information on internals        .... done
Copying old internal coords+grads       .... done
Making the new internal coordinates     .... (new redundants).... done
Validating the new internal coordinates .... (new redundants).... done
Calculating the B-matrix                .... done
Calculating the G,G- and P matrices     .... done
Transforming gradient to internals      .... done
Projecting the internal gradient        .... done
Number of atoms                         ....   8
Number of internal coordinates          ....  25
Current Energy                          ....  -228.797524743 Eh
Current gradient norm                   ....     0.014004190 Eh/bohr
Maximum allowed component of the step   ....  0.300
Current trust radius                    ....  0.300
Updating the Hessian (BFGS)             .... done
Forming the augmented Hessian           .... done
Diagonalizing the augmented Hessian     .... done
Last element of RFO vector              ....  0.999736123
Lowest eigenvalues of augmented Hessian:
 -0.000256840  0.013360112  0.017807670  0.031072895  0.127068605
Length of the computed step             ....  0.022977428
The final length of the internal step   ....  0.022977428
Converting the step to cartesian space:
 Initial RMS(Int)=    0.0045954856
Transforming coordinates:
 Iter   0:  RMS(Cart)=    0.0073800900 RMS(Int)=    1.7767279178
 Iter   1:  RMS(Cart)=    0.0000395698 RMS(Int)=    0.0000431595
 Iter   2:  RMS(Cart)=    0.0000004894 RMS(Int)=    0.0000003693
 Iter   3:  RMS(Cart)=    0.0000000082 RMS(Int)=    0.0000000085
done
Storing new coordinates                 .... done

                                .--------------------.
          ----------------------|Geometry convergence|-------------------------
          Item                value                   Tolerance       Converged
          ---------------------------------------------------------------------
          Energy change      -0.0024668895            0.0000050000      NO
          RMS gradient        0.0024334542            0.0001000000      NO
          MAX gradient        0.0085216905            0.0003000000      NO
          RMS step            0.0045954856            0.0020000000      NO
          MAX step            0.0117754134            0.0040000000      NO
          ........................................................
          Max(Bonds)      0.0062      Max(Angles)    0.59
          Max(Dihed)        0.20      Max(Improp)    0.00
          ---------------------------------------------------------------------

The optimization has not yet converged - more geometry cycles are needed


    ---------------------------------------------------------------------------
                         Redundant Internal Coordinates
                            (Angstroem and degrees)

        Definition                    Value    dE/dq     Step     New-Value
    ----------------------------------------------------------------------------
     1. B(C   1,C   0)                1.5109 -0.001133  0.0016    1.5125   
     2. B(H   2,C   0)                1.0962 -0.000645  0.0006    1.0969   
     3. B(H   3,C   0)                1.0994 -0.000943  0.0009    1.1003   
     4. B(H   4,C   0)                1.0998 -0.000922  0.0009    1.1007   
     5. B(O   5,C   1)                1.2051 -0.000814  0.0001    1.2052   
     6. B(O   6,C   1)                1.3381 -0.008522  0.0062    1.3444   
     7. B(H   7,O   6)                0.9724 -0.001291  0.0012    0.9735   
     8. A(C   1,C   0,H   2)          112.97  0.001915   -0.24    112.73   
     9. A(C   1,C   0,H   4)          108.45 -0.000973    0.13    108.58   
    10. A(H   2,C   0,H   4)          109.61 -0.000573    0.14    109.75   
    11. A(C   1,C   0,H   3)          108.45 -0.000954    0.12    108.58   
    12. A(H   3,C   0,H   4)          107.60  0.001142   -0.29    107.31   
    13. A(H   2,C   0,H   3)          109.61 -0.000579    0.14    109.75   
    14. A(C   0,C   1,O   5)          124.66 -0.000668    0.13    124.79   
    15. A(O   5,C   1,O   6)          123.79  0.005587   -0.59    123.20   
    16. A(C   0,C   1,O   6)          111.55 -0.004919    0.46    112.02   
    17. A(C   1,O   6,H   7)          107.88  0.002491   -0.58    107.30   
    18. D(O   5,C   1,C   0,H   2)    180.00 -0.000025    0.09    180.09   
    19. D(O   6,C   1,C   0,H   2)      0.03  0.000016   -0.04     -0.01   
    20. D(O   5,C   1,C   0,H   3)     58.29  0.000128   -0.01     58.28   
    21. D(O   6,C   1,C   0,H   3)   -121.68  0.000169   -0.14   -121.82   
    22. D(O   6,C   1,C   0,H   4)    121.75 -0.000143    0.06    121.81   
    23. D(O   5,C   1,C   0,H   4)    -58.29 -0.000184    0.20    -58.09   
    24. D(H   7,O   6,C   1,C   0)    179.92 -0.000031    0.08    180.01   
    25. D(H   7,O   6,C   1,O   5)     -0.04  0.000012   -0.05     -0.09   
    ----------------------------------------------------------------------------

         *************************************************************
         *                GEOMETRY OPTIMIZATION CYCLE   4            *
         *************************************************************
---------------------------------
CARTESIAN COORDINATES (ANGSTROEM)
---------------------------------
  C     -8.209821    1.727149   -0.008300
  C     -6.780201    2.218682    0.038802
  H     -8.280291    0.642036   -0.152042
  H     -8.731786    2.245188   -0.826698
  H     -8.709381    2.011203    0.930422
  O     -6.453103    3.368810    0.189461
  O     -5.897288    1.215298   -0.106134
  H     -5.006349    1.605574   -0.065513

----------------------------
CARTESIAN COORDINATES (A.U.)
----------------------------
  NO LB      ZA    FRAG     MASS         X           Y           Z
   0 C     6.0000    0    12.011  -15.514313    3.263839   -0.015684
   1 C     6.0000    0    12.011  -12.812722    4.192702    0.073326
   2 H     1.0000    0     1.008  -15.647482    1.213272   -0.287317
   3 H     1.0000    0     1.008  -16.500684    4.242791   -1.562233
   4 H     1.0000    0     1.008  -16.458345    3.800623    1.758243
   5 O     8.0000    0    15.999  -12.194597    6.366127    0.358030
   6 O     8.0000    0    15.999  -11.144260    2.296580   -0.200564
   7 H     1.0000    0     1.008   -9.460629    3.034096   -0.123801

--------------------------------
INTERNAL COORDINATES (ANGSTROEM)
--------------------------------
 C      0   0   0     0.000000000000     0.00000000     0.00000000
 C      1   0   0     1.512493957543     0.00000000     0.00000000
 H      1   2   0     1.096858621882   112.72506014     0.00000000
 H      1   2   3     1.100267170757   108.57570270   238.18699119
 H      1   2   3     1.100656466950   108.57677829   121.82052911
 O      2   1   3     1.205190236174   124.78952626   180.08934760
 O      2   1   3     1.344366545849   112.01522149     0.00000000
 H      7   2   1     0.973518502949   107.29732800   180.00539443

---------------------------
INTERNAL COORDINATES (A.U.)
---------------------------
 C      0   0   0     0.000000000000     0.00000000     0.00000000
 C      1   0   0     2.858199358966     0.00000000     0.00000000
 H      1   2   0     2.072762402988   112.72506014     0.00000000
 H      1   2   3     2.079203626875   108.57570270   238.18699119
 H      1   2   3     2.079939290064   108.57677829   121.82052911
 O      2   1   3     2.277479485644   124.78952626   180.08934760
 O      2   1   3     2.540484595259   112.01522149     0.00000000
 H      7   2   1     1.839683356879   107.29732800   180.00539443


Diagonalization of the overlap matrix:
Smallest eigenvalue                        ... 3.622e-03
Time for diagonalization                   ...    0.001 sec
Threshold for overlap eigenvalues          ... 1.000e-08
Number of eigenvalues below threshold      ... 0
Time for construction of square roots      ...    0.001 sec
Total time needed                          ...    0.002 sec

-------------------
DFT GRID GENERATION
-------------------

General Integration Accuracy     IntAcc      ...  4.340
Radial Grid Type                 RadialGrid  ... Gauss-Chebyshev
Angular Grid (max. acc.)         AngularGrid ... Lebedev-110
Angular grid pruning method      GridPruning ... 3 (G Style)
Weight generation scheme         WeightScheme... Becke
Basis function cutoff            BFCut       ...    1.0000e-11
[...]
Hartree-Fock exchange scaling                    ...    0.200
Number of operators                              ...    1
Number of atoms                                  ...    8
Basis set dimensions                             ...   76
Integral neglect threshold                       ... 2.5e-11
Integral primitive cutoff                        ... 2.5e-12

Setting up DFT Hessian calculations              ... 
Electron density on the grid                     ... found on disk
Electron density on the final grid               ... found on disk
Building xc-kernel on the grid                   ... done   (      0.0 sec)
Building xc-kernel on the final grid             ... done   (      0.0 sec)
                                                     done   (      0.1 sec)

Nuclear repulsion Hessian                        ... done   (      0.0 sec)

----------------------------------------------
Forming right-hand sides of CP-SCF equations     ...
----------------------------------------------
One electron integral derivatives                ... done   (      0.1 sec)
Transforming the overlap derivative matrices     ... done   (      0.0 sec)
Making the Q(x) pseudodensities                  ... done   (      0.0 sec)
Adding the E*S(x)*S(y) terms to the Hessian      ... done   (      0.0 sec)
Calculating energy weighted overlap derivatives  ... done   (      0.0 sec)
Two electron integral derivatives                ... done   (      1.7 sec)
Exchange-correlation integral derivatives        ... done   (      6.9 sec)
tr(F(y)Q(x)) contribution to the Hessian         ... done   (      0.0 sec)
Response fock operator R(S(x))                   ... done   (      2.9 sec)
XC Response fock operator R(S(x))                ... done   (      1.7 sec)
tr(F(y)S(x)) contribution to the Hessian         ... done   (      0.0 sec)
Transforming and finalizing RHSs                 ... done   (      0.0 sec)

----------------------------------------------
Solving the CP-SCF equations                     ...
----------------------------------------------
     CP-SCF ITERATION   0: 
     CP-SCF ITERATION   1:      0.004786398311
     CP-SCF ITERATION   2:      0.000398768027
     CP-SCF ITERATION   3:      0.000021677040
     CP-SCF ITERATION   4:      0.000002042720
     CP-SCF ITERATION   5:      0.000000079552
     CP-SCF ITERATION   6:      0.000000009273

                                                 ... done   (     22.6 sec)
Forming perturbed density Hessian contributions  ... done   (      0.0 sec)
Making the perturbed densities                   ... done   (      0.0 sec)
2nd integral derivative contribs                 ... done   (      7.1 sec)
Exchange-correlation Hessian                     ... done   (      6.1 sec)
Dipol derivatives                                ... done   (      0.2 sec)

Total SCF Hessian time: 0 days 0 hours 0 min 49 sec 

Writing the Hessian file to the disk             ... done


Maximum memory used throughout the entire calculation: 101.3 MB

-----------------------
VIBRATIONAL FREQUENCIES
-----------------------

Scaling factor for frequencies =  1.000000000  (already applied!)

   0:         0.00 cm**-1
   1:         0.00 cm**-1
   2:         0.00 cm**-1
   3:         0.00 cm**-1
   4:         0.00 cm**-1
   5:         0.00 cm**-1
   6:       -83.36 cm**-1 ***imaginary mode***
   7:       430.82 cm**-1
   8:       549.83 cm**-1
   9:       590.30 cm**-1
  10:       713.68 cm**-1
  11:       868.98 cm**-1
  12:      1003.09 cm**-1
  13:      1050.04 cm**-1
  14:      1212.92 cm**-1
  15:      1340.20 cm**-1
  16:      1390.15 cm**-1
  17:      1448.93 cm**-1
  18:      1456.90 cm**-1
  19:      1866.31 cm**-1
  20:      3052.55 cm**-1
  21:      3132.41 cm**-1
  22:      3168.82 cm**-1
  23:      3734.93 cm**-1


------------
NORMAL MODES
------------

These modes are the Cartesian displacements weighted by the diagonal matrix
M(i,i)=1/sqrt(m[i]) where m[i] is the mass of the displaced atom
Thus, these vectors are normalized but *not* orthogonal

                  0          1          2          3          4          5    
      0       0.000000   0.000000   0.000000   0.000000   0.000000   0.000000
      1       0.000000   0.000000   0.000000   0.000000   0.000000   0.000000
      2       0.000000   0.000000   0.000000   0.000000   0.000000   0.000000
      3       0.000000   0.000000   0.000000   0.000000   0.000000   0.000000
      4       0.000000   0.000000   0.000000   0.000000   0.000000   0.000000
      5       0.000000   0.000000   0.000000   0.000000   0.000000   0.000000
      6       0.000000   0.000000   0.000000   0.000000   0.000000   0.000000
      7       0.000000   0.000000   0.000000   0.000000   0.000000   0.000000
      8       0.000000   0.000000   0.000000   0.000000   0.000000   0.000000
      9       0.000000   0.000000   0.000000   0.000000   0.000000   0.000000
     10       0.000000   0.000000   0.000000   0.000000   0.000000   0.000000
     11       0.000000   0.000000   0.000000   0.000000   0.000000   0.000000
     12       0.000000   0.000000   0.000000   0.000000   0.000000   0.000000
     13       0.000000   0.000000   0.000000   0.000000   0.000000   0.000000
     14       0.000000   0.000000   0.000000   0.000000   0.000000   0.000000
     15       0.000000   0.000000   0.000000   0.000000   0.000000   0.000000
     16       0.000000   0.000000   0.000000   0.000000   0.000000   0.000000
     17       0.000000   0.000000   0.000000   0.000000   0.000000   0.000000
     18       0.000000   0.000000   0.000000   0.000000   0.000000   0.000000
     19       0.000000   0.000000   0.000000   0.000000   0.000000   0.000000
     20       0.000000   0.000000   0.000000   0.000000   0.000000   0.000000
     21       0.000000   0.000000   0.000000   0.000000   0.000000   0.000000
     22       0.000000   0.000000   0.000000   0.000000   0.000000   0.000000
     23       0.000000   0.000000   0.000000   0.000000   0.000000   0.000000
                  6          7          8          9         10         11    
      0       0.000102   0.077991   0.000172  -0.252999   0.000811  -0.289945
      1      -0.000911  -0.173737   0.001013  -0.077221  -0.004207  -0.040142
      2       0.006617  -0.024492  -0.006853  -0.007228   0.031153  -0.001816
      3       0.000216  -0.023291   0.002859  -0.126482   0.001818   0.101802
      4      -0.002545   0.151800  -0.028985  -0.033182  -0.018874   0.107273
      5       0.019209   0.020805   0.214686  -0.001957   0.139600   0.013655
      6       0.006608   0.588832  -0.004636  -0.151350  -0.001718  -0.168959
      7      -0.069792  -0.201505   0.036191  -0.087353   0.011663  -0.057573
      8       0.526534  -0.035414  -0.271682  -0.010574  -0.088024  -0.005377
      9       0.175137  -0.103874   0.357654  -0.301722   0.215645  -0.413714
     10      -0.423086  -0.427439   0.175428  -0.151318   0.076442  -0.199631
     11      -0.377978  -0.068377  -0.130025  -0.024508  -0.057338  -0.032385
     12      -0.182902  -0.105633  -0.359652  -0.303713  -0.215671  -0.414196
     13       0.506125  -0.432163  -0.134698  -0.154432  -0.058315  -0.203008
     14      -0.251008  -0.044371  -0.162654  -0.009513  -0.070276  -0.010931
     15       0.000609   0.156120  -0.001168   0.263811  -0.001011   0.011990
     16      -0.005745   0.105479   0.009538  -0.139767   0.009076   0.172344
     17       0.042675   0.012189  -0.069977  -0.022613  -0.066873   0.022957
     18      -0.000699  -0.214395  -0.000096   0.078026  -0.001603   0.171856
     19       0.006759  -0.006912   0.000574   0.203638   0.014090  -0.162831
     20      -0.050074   0.001910  -0.005323   0.026289  -0.105125  -0.024429
     21      -0.001208  -0.106156  -0.009423  -0.147083   0.011908   0.320717
     22       0.011835  -0.241936   0.095892   0.694859  -0.122444  -0.490688
     23      -0.087835  -0.031696  -0.716953   0.095695   0.910960  -0.069029
                 12         13         14         15         16         17    
      0      -0.007867   0.001965   0.043365   0.066617   0.140394  -0.000304
      1      -0.172804  -0.023052  -0.058475   0.044290  -0.005332   0.007088
      2      -0.023516   0.167848  -0.008415   0.004940  -0.002616  -0.050311
      3       0.064123  -0.002422  -0.136769   0.168210  -0.133856  -0.001531
      4       0.007460   0.027004   0.065812  -0.062692   0.053087   0.004120
      5       0.000477  -0.199699   0.010576  -0.010703   0.008923  -0.026883
      6      -0.787159  -0.008043  -0.096575  -0.436756  -0.191923   0.004048
      7      -0.128822   0.048621  -0.042198   0.057932   0.022461  -0.094041
      8      -0.005986  -0.371201  -0.004442   0.014650   0.007107   0.714225
      9       0.204853   0.600177   0.128163  -0.378950  -0.468928   0.204639
     10       0.286355   0.108746   0.180699  -0.307820   0.069684   0.429437
     11       0.125279  -0.148240   0.087056   0.058787   0.420700   0.100817
     12       0.208281  -0.602813   0.127969  -0.382434  -0.478483  -0.197118
     13       0.310850  -0.065029   0.197987  -0.285266   0.173123  -0.449813
     14      -0.050087  -0.158455  -0.039899  -0.127763  -0.376542  -0.003303
     15       0.033411   0.000618   0.029917  -0.021736   0.010240   0.000228
     16       0.050368  -0.004828   0.098503   0.029525  -0.038273  -0.000800
     17       0.006344   0.036778   0.012941   0.004281  -0.005299   0.005217
     18      -0.055522   0.000347   0.053884  -0.062885   0.046127   0.000365
     19       0.055755  -0.003588  -0.175879  -0.010562   0.004218  -0.000333
     20       0.008202   0.027362  -0.024364  -0.000579  -0.000037   0.001792
     21       0.054657   0.000806  -0.376677  -0.256866   0.166770   0.000899
     22      -0.182586  -0.005871   0.804186   0.453440  -0.293792  -0.001149
     23      -0.025560   0.039385   0.112841   0.064230  -0.041717  -0.003170
                 18         19         20         21         22         23    
      0      -0.061520   0.043802  -0.050647   0.001683  -0.021222  -0.000667
      1      -0.053411   0.052458  -0.004137  -0.010035   0.091997  -0.000332
      2      -0.006916   0.006476   0.001811   0.091701   0.010425  -0.000038
      3       0.115797  -0.253153   0.002240  -0.000061  -0.001554   0.003067
      4      -0.042392  -0.685917   0.000654  -0.000039   0.001422   0.000217
      5      -0.007442  -0.089347   0.000078   0.000568   0.000199  -0.000012
      6       0.569432   0.185857   0.021356  -0.001362  -0.047224  -0.001475
      7      -0.082690   0.041466   0.488610  -0.030072  -0.860398   0.000689
      8      -0.009387   0.003816   0.064859   0.008846  -0.113670   0.000112
      9      -0.177618  -0.071806   0.277338  -0.341456   0.167458   0.001306
     10       0.399270  -0.034093  -0.283947   0.339872  -0.160618  -0.000689
     11       0.346099   0.040439   0.450432  -0.519984   0.272640   0.000170
     12      -0.188968  -0.073584   0.278241   0.323420   0.146421   0.001295
     13       0.464356  -0.023706  -0.163775  -0.189033  -0.075530  -0.000614
     14      -0.226264  -0.046560  -0.537894  -0.589644  -0.283231  -0.000344
     15      -0.015905   0.136019  -0.000066  -0.000004  -0.000029  -0.000251
     16       0.005434   0.435805   0.000122  -0.000001  -0.000538   0.000816
     17       0.000985   0.057105   0.000013  -0.000159  -0.000071   0.000113
     18      -0.031885   0.006491  -0.000034   0.000010   0.000302   0.056106
     19       0.007635   0.064738  -0.000188  -0.000033  -0.000452   0.024120
     20       0.001468   0.008645  -0.000021   0.000183  -0.000067   0.002495
     21      -0.091085   0.192163   0.001453  -0.000028   0.000390  -0.916248
     22       0.153187  -0.380189   0.001659  -0.000190  -0.000878  -0.393798
     23       0.021700  -0.053803   0.000215   0.000949  -0.000138  -0.040735


-----------
IR SPECTRUM
-----------

 Mode    freq (cm**-1)   T**2         TX         TY         TZ
-------------------------------------------------------------------
   7:       430.82    3.459396  (  0.178845  -1.834308  -0.250451)
   8:       549.83   21.403533  ( -0.052057   0.619353  -4.584455)
   9:       590.30   43.022327  ( -6.375927   1.510877   0.295191)
  10:       713.68  108.125489  (  0.140216  -1.388310  10.304291)
  11:       868.98    4.401127  (  1.644918   1.291211   0.167766)
  12:      1003.09   29.565179  (  3.904739  -3.743070  -0.554631)
  13:      1050.04    8.935889  ( -0.034126   0.398792  -2.962379)
  14:      1212.92  242.039371  (-12.482743   9.180353   1.393417)
  15:      1340.20   13.237895  (  2.998743  -2.036830  -0.311057)
  16:      1390.15   75.648870  ( -8.093226   3.142169   0.524720)
  17:      1448.93    7.757535  ( -0.005583  -0.351371   2.762977)
  18:      1456.90   25.490784  (  5.031838   0.413743   0.014368)
  19:      1866.31  310.482648  ( -2.472373 -17.294292  -2.297276)
  20:      3052.55    0.729942  ( -0.774274  -0.361166   0.000998)
  21:      3132.41    1.751383  (  0.028355  -0.111278   1.318407)
  22:      3168.82    5.163291  (  0.625596   2.168133   0.266685)
  23:      3734.93   60.286511  ( -7.679696  -1.142983  -0.048662)

The first frequency considered to be a vibration is 7
The total number of vibrations considered is 17


--------------------------
THERMOCHEMISTRY AT 298.15K
--------------------------

Temperature         ... 298.15 K
Pressure            ... 1.00 atm
Total Mass          ... 60.05 AMU

Throughout the following assumptions are being made:
  (1) The electronic state is orbitally nondegenerate
  (2) There are no thermally accessible electronically excited states
  (3) Hindered rotations indicated by low frequency modes are not
      treated as such but are treated as vibrations and this may
      cause some error
  (4) All equations used are the standard statistical mechanics
      equations for an ideal gas
  (5) All vibrations are strictly harmonic

freq.     430.82  E(vib)   ...       0.18 
freq.     549.83  E(vib)   ...       0.12 
freq.     590.30  E(vib)   ...       0.10 
freq.     713.68  E(vib)   ...       0.07 
freq.     868.98  E(vib)   ...       0.04 
freq.    1003.09  E(vib)   ...       0.02 
freq.    1050.04  E(vib)   ...       0.02 
freq.    1212.92  E(vib)   ...       0.01 
freq.    1340.20  E(vib)   ...       0.01 
freq.    1390.15  E(vib)   ...       0.00 
freq.    1448.93  E(vib)   ...       0.00 
freq.    1456.90  E(vib)   ...       0.00 
freq.    1866.31  E(vib)   ...       0.00 
freq.    3052.55  E(vib)   ...       0.00 
freq.    3132.41  E(vib)   ...       0.00 
freq.    3168.82  E(vib)   ...       0.00 
freq.    3734.93  E(vib)   ...       0.00 

------------
INNER ENERGY
------------

The inner energy is: U= E(el) + E(ZPE) + E(vib) + E(rot) + E(trans)
    E(el)   - is the total energy from the electronic structure calculation
              = E(kin-el) + E(nuc-el) + E(el-el) + E(nuc-nuc)
    E(ZPE)  - the the zero temperature vibrational energy from the frequency calculation
    E(vib)  - the the finite temperature correction to E(ZPE) due to population
              of excited vibrational states
    E(rot)  - is the rotational thermal energy
    E(trans)- is the translational thermal energy

Summary of contributions to the inner energy U:
Electronic energy                ...   -228.79778060 Eh
Zero point energy                ...      0.06153522 Eh      38.61 kcal/mol
Thermal vibrational correction   ...      0.00091665 Eh       0.58 kcal/mol
Thermal rotational correction    ...      0.00141627 Eh       0.89 kcal/mol
Thermal translational correction ...      0.00141627 Eh       0.89 kcal/mol
-----------------------------------------------------------------------
Total thermal energy                   -228.73249618 Eh


Summary of corrections to the electronic energy:
(perhaps to be used in another calculation)
Total thermal correction                  0.00374919 Eh       2.35 kcal/mol
Non-thermal (ZPE) correction              0.06153522 Eh      38.61 kcal/mol
-----------------------------------------------------------------------
Total correction                          0.06528442 Eh      40.97 kcal/mol


--------
ENTHALPY
--------

The enthalpy is H = U + kB*T
                kB is Boltzmann's constant
Total free energy                 ...   -228.73249618 Eh 
Thermal Enthalpy correction       ...      0.00094421 Eh       0.59 kcal/mol
-----------------------------------------------------------------------
Total Enthalpy                    ...   -228.73155197 Eh


Note: Only C1 symmetry has been detected, increase convergence thresholds 
      if your molecule has a higher symmetry. Symmetry factor of 1.0 is   
      used for the rotational entropy correction. 
 

Note: Rotational entropy computed according to Herzberg 
Infrared and Raman Spectra, Chapter V,1, Van Nostrand Reinhold, 1945 
Point Group:  C1, Symmetry Number:   1  
Rotational constants in cm-1:     0.379928     0.312743     0.177237 

Vibrational entropy computed according to the QRRHO of S. Grimme
Chem.Eur.J. 2012 18 9955


-------
ENTROPY
-------

The entropy contributions are T*S = T*(S(el)+S(vib)+S(rot)+S(trans))
     S(el)   - electronic entropy
     S(vib)  - vibrational entropy
     S(rot)  - rotational entropy
     S(trans)- translational entropy
The entropies will be listed as mutliplied by the temperature to get
units of energy

Electronic entropy                ...      0.00000000 Eh      0.00 kcal/mol
Vibrational entropy               ...      0.00123522 Eh      0.78 kcal/mol
Rotational entropy                ...      0.01133327 Eh      7.11 kcal/mol
Translational entropy             ...      0.01814900 Eh     11.39 kcal/mol
-----------------------------------------------------------------------
Final entropy term                ...      0.03071750 Eh     19.28 kcal/mol

In case the symmetry of your molecule has not been determined correctly
or in case you have a reason to use a different symmetry number we print 
out the resulting rotational entropy values for sn=1,12 :
 --------------------------------------------------------
|  sn= 1 | S(rot)=       0.01133327 Eh      7.11 kcal/mol|
|  sn= 2 | S(rot)=       0.01067882 Eh      6.70 kcal/mol|
|  sn= 3 | S(rot)=       0.01029599 Eh      6.46 kcal/mol|
|  sn= 4 | S(rot)=       0.01002436 Eh      6.29 kcal/mol|
|  sn= 5 | S(rot)=       0.00981367 Eh      6.16 kcal/mol|
|  sn= 6 | S(rot)=       0.00964153 Eh      6.05 kcal/mol|
|  sn= 7 | S(rot)=       0.00949598 Eh      5.96 kcal/mol|
|  sn= 8 | S(rot)=       0.00936991 Eh      5.88 kcal/mol|
|  sn= 9 | S(rot)=       0.00925870 Eh      5.81 kcal/mol|
|  sn=10 | S(rot)=       0.00915922 Eh      5.75 kcal/mol|
|  sn=11 | S(rot)=       0.00906923 Eh      5.69 kcal/mol|
|  sn=12 | S(rot)=       0.00898707 Eh      5.64 kcal/mol|
 --------------------------------------------------------


-------------------
GIBBS FREE ENERGY
-------------------

The Gibbs free energy is G = H - T*S

Total enthalpy                    ...   -228.73155197 Eh 
Total entropy correction          ...     -0.03071750 Eh    -19.28 kcal/mol
-----------------------------------------------------------------------
Final Gibbs free energy         ...   -228.76226947 Eh

For completeness - the Gibbs free energy minus the electronic energy
G-E(el)                           ...      0.03551113 Eh     22.28 kcal/mol


Timings for individual modules:

Sum of individual times         ...      139.679 sec (=   2.328 min)
GTO integral calculation        ...       12.854 sec (=   0.214 min)   9.2 %
SCF iterations                  ...       40.663 sec (=   0.678 min)  29.1 %
SCF Gradient evaluation         ...       24.806 sec (=   0.413 min)  17.8 %
Geometry relaxation             ...        4.884 sec (=   0.081 min)   3.5 %
Analytical frequency calculation...       56.472 sec (=   0.941 min)  40.4 %
                             ****ORCA TERMINATED NORMALLY****
TOTAL RUN TIME: 0 days 0 hours 2 minutes 21 seconds 853 msec
