8
* (null), Energy   -1000.0000000
C    -8.211736    1.728101   -0.008013    0.003366   -0.020070    0.183402
C    -6.782866    2.213722    0.039075   -0.000122   -0.000078    0.001137
H    -8.277104    0.642209   -0.150979   -0.002725   -0.060143    0.017692
H    -8.734844    2.246734   -0.825990   -0.682912    0.679744   -1.039967
H    -8.713867    2.014836    0.929061    0.646839   -0.378067   -1.179287
O    -6.446204    3.361473    0.189749   -0.000008   -0.000002   -0.000319
O    -5.892435    1.209722   -0.107978    0.000020   -0.000066    0.000366
H    -5.009163    1.617144   -0.064925   -0.000057   -0.000380    0.001899
8
* Frequency(21) 3132.4143
C    -8.211354    1.725820    0.012830    0.003366   -0.020070    0.183402
C    -6.782879    2.213713    0.039204   -0.000122   -0.000078    0.001137
H    -8.277414    0.635374   -0.148968   -0.002725   -0.060143    0.017692
H    -8.812453    2.323983   -0.944177   -0.682912    0.679744   -1.039967
H    -8.640357    1.971871    0.795042    0.646839   -0.378067   -1.179287
O    -6.446205    3.361472    0.189713   -0.000008   -0.000002   -0.000319
O    -5.892433    1.209714   -0.107937    0.000020   -0.000066    0.000366
H    -5.009170    1.617101   -0.064709   -0.000057   -0.000380    0.001899
8
* Frequency(21) 3132.4143
C    -8.211013    1.723786    0.031414    0.003366   -0.020070    0.183402
C    -6.782892    2.213705    0.039319   -0.000122   -0.000078    0.001137
H    -8.277690    0.629280   -0.147176   -0.002725   -0.060143    0.017692
H    -8.881652    2.392861   -1.049556   -0.682912    0.679744   -1.039967
H    -8.574813    1.933561    0.675545    0.646839   -0.378067   -1.179287
O    -6.446206    3.361472    0.189681   -0.000008   -0.000002   -0.000319
O    -5.892431    1.209708   -0.107900    0.000020   -0.000066    0.000366
H    -5.009176    1.617063   -0.064517   -0.000057   -0.000380    0.001899
8
* Frequency(21) 3132.4143
C    -8.210750    1.722220    0.045725    0.003366   -0.020070    0.183402
C    -6.782901    2.213699    0.039408   -0.000122   -0.000078    0.001137
H    -8.277903    0.624586   -0.145795   -0.002725   -0.060143    0.017692
H    -8.934942    2.445904   -1.130709   -0.682912    0.679744   -1.039967
H    -8.524338    1.904059    0.583521    0.646839   -0.378067   -1.179287
O    -6.446206    3.361472    0.189656   -0.000008   -0.000002   -0.000319
O    -5.892429    1.209703   -0.107871    0.000020   -0.000066    0.000366
H    -5.009180    1.617033   -0.064369   -0.000057   -0.000380    0.001899
8
* Frequency(21) 3132.4143
C    -8.210594    1.721291    0.054213    0.003366   -0.020070    0.183402
C    -6.782907    2.213696    0.039461   -0.000122   -0.000078    0.001137
H    -8.278029    0.621803   -0.144976   -0.002725   -0.060143    0.017692
H    -8.966549    2.477364   -1.178841   -0.682912    0.679744   -1.039967
H    -8.494401    1.886562    0.528941    0.646839   -0.378067   -1.179287
O    -6.446207    3.361472    0.189641   -0.000008   -0.000002   -0.000319
O    -5.892429    1.209700   -0.107854    0.000020   -0.000066    0.000366
H    -5.009183    1.617015   -0.064281   -0.000057   -0.000380    0.001899
8
* Frequency(21) 3132.4143
C    -8.210562    1.721100    0.055958    0.003366   -0.020070    0.183402
C    -6.782908    2.213695    0.039472   -0.000122   -0.000078    0.001137
H    -8.278055    0.621231   -0.144808   -0.002725   -0.060143    0.017692
H    -8.973046    2.483832   -1.188735   -0.682912    0.679744   -1.039967
H    -8.488247    1.882965    0.517721    0.646839   -0.378067   -1.179287
O    -6.446207    3.361472    0.189638   -0.000008   -0.000002   -0.000319
O    -5.892428    1.209699   -0.107851    0.000020   -0.000066    0.000366
H    -5.009183    1.617012   -0.064263   -0.000057   -0.000380    0.001899
8
* Frequency(21) 3132.4143
C    -8.210657    1.721668    0.050771    0.003366   -0.020070    0.183402
C    -6.782905    2.213697    0.039439   -0.000122   -0.000078    0.001137
H    -8.277978    0.622932   -0.145308   -0.002725   -0.060143    0.017692
H    -8.953731    2.464606   -1.159321   -0.682912    0.679744   -1.039967
H    -8.506542    1.893658    0.551076    0.646839   -0.378067   -1.179287
O    -6.446207    3.361472    0.189647   -0.000008   -0.000002   -0.000319
O    -5.892429    1.209701   -0.107861    0.000020   -0.000066    0.000366
H    -5.009182    1.617022   -0.064317   -0.000057   -0.000380    0.001899
8
* Frequency(21) 3132.4143
C    -8.210870    1.722933    0.039214    0.003366   -0.020070    0.183402
C    -6.782897    2.213702    0.039368   -0.000122   -0.000078    0.001137
H    -8.277806    0.626722   -0.146423   -0.002725   -0.060143    0.017692
H    -8.910696    2.421770   -1.093785   -0.682912    0.679744   -1.039967
H    -8.547304    1.917482    0.625391    0.646839   -0.378067   -1.179287
O    -6.446206    3.361472    0.189667   -0.000008   -0.000002   -0.000319
O    -5.892430    1.209705   -0.107884    0.000020   -0.000066    0.000366
H    -5.009178    1.617046   -0.064436   -0.000057   -0.000380    0.001899
8
* Frequency(21) 3132.4143
C    -8.211176    1.724757    0.022538    0.003366   -0.020070    0.183402
C    -6.782886    2.213709    0.039264   -0.000122   -0.000078    0.001137
H    -8.277558    0.632190   -0.148032   -0.002725   -0.060143    0.017692
H    -8.848604    2.359967   -0.999229   -0.682912    0.679744   -1.039967
H    -8.606116    1.951857    0.732614    0.646839   -0.378067   -1.179287
O    -6.446205    3.361472    0.189696   -0.000008   -0.000002   -0.000319
O    -5.892432    1.209711   -0.107917    0.000020   -0.000066    0.000366
H    -5.009173    1.617081   -0.064609   -0.000057   -0.000380    0.001899
8
* Frequency(21) 3132.4143
C    -8.211542    1.726945    0.002552    0.003366   -0.020070    0.183402
C    -6.782873    2.213718    0.039140   -0.000122   -0.000078    0.001137
H    -8.277261    0.638744   -0.149960   -0.002725   -0.060143    0.017692
H    -8.774185    2.285893   -0.885901   -0.682912    0.679744   -1.039967
H    -8.676604    1.993056    0.861125    0.646839   -0.378067   -1.179287
O    -6.446204    3.361472    0.189731   -0.000008   -0.000002   -0.000319
O    -5.892434    1.209718   -0.107957    0.000020   -0.000066    0.000366
H    -5.009167    1.617122   -0.064816   -0.000057   -0.000380    0.001899
8
* Frequency(21) 3132.4143
C    -8.211930    1.729257   -0.018579    0.003366   -0.020070    0.183402
C    -6.782859    2.213727    0.039009   -0.000122   -0.000078    0.001137
H    -8.276947    0.645674   -0.151998   -0.002725   -0.060143    0.017692
H    -8.695502    2.207575   -0.766079   -0.682912    0.679744   -1.039967
H    -8.751130    2.036616    0.996998    0.646839   -0.378067   -1.179287
O    -6.446204    3.361473    0.189767   -0.000008   -0.000002   -0.000319
O    -5.892437    1.209726   -0.107999    0.000020   -0.000066    0.000366
H    -5.009160    1.617166   -0.065034   -0.000057   -0.000380    0.001899
8
* Frequency(21) 3132.4143
C    -8.212297    1.731444   -0.038565    0.003366   -0.020070    0.183402
C    -6.782845    2.213735    0.038886   -0.000122   -0.000078    0.001137
H    -8.276650    0.652228   -0.153926   -0.002725   -0.060143    0.017692
H    -8.621083    2.133501   -0.652751   -0.682912    0.679744   -1.039967
H    -8.821619    2.077815    1.125509    0.646839   -0.378067   -1.179287
O    -6.446203    3.361473    0.189802   -0.000008   -0.000002   -0.000319
O    -5.892439    1.209733   -0.108039    0.000020   -0.000066    0.000366
H    -5.009154    1.617207   -0.065241   -0.000057   -0.000380    0.001899
8
* Frequency(21) 3132.4143
C    -8.212603    1.733269   -0.055240    0.003366   -0.020070    0.183402
C    -6.782834    2.213742    0.038782   -0.000122   -0.000078    0.001137
H    -8.276403    0.657696   -0.155535   -0.002725   -0.060143    0.017692
H    -8.558991    2.071697   -0.558195   -0.682912    0.679744   -1.039967
H    -8.880430    2.112189    1.232732    0.646839   -0.378067   -1.179287
O    -6.446202    3.361473    0.189831   -0.000008   -0.000002   -0.000319
O    -5.892441    1.209739   -0.108073    0.000020   -0.000066    0.000366
H    -5.009149    1.617242   -0.065414   -0.000057   -0.000380    0.001899
8
* Frequency(21) 3132.4143
C    -8.212815    1.734534   -0.066797    0.003366   -0.020070    0.183402
C    -6.782826    2.213747    0.038711   -0.000122   -0.000078    0.001137
H    -8.276231    0.661486   -0.156649   -0.002725   -0.060143    0.017692
H    -8.515956    2.028862   -0.492659   -0.682912    0.679744   -1.039967
H    -8.921192    2.136014    1.307047    0.646839   -0.378067   -1.179287
O    -6.446201    3.361473    0.189851   -0.000008   -0.000002   -0.000319
O    -5.892442    1.209743   -0.108096    0.000020   -0.000066    0.000366
H    -5.009145    1.617266   -0.065534   -0.000057   -0.000380    0.001899
8
* Frequency(21) 3132.4143
C    -8.212911    1.735101   -0.071985    0.003366   -0.020070    0.183402
C    -6.782823    2.213749    0.038678   -0.000122   -0.000078    0.001137
H    -8.276154    0.663187   -0.157150   -0.002725   -0.060143    0.017692
H    -8.496641    2.009636   -0.463245   -0.682912    0.679744   -1.039967
H    -8.939488    2.146707    1.340402    0.646839   -0.378067   -1.179287
O    -6.446201    3.361473    0.189860   -0.000008   -0.000002   -0.000319
O    -5.892443    1.209745   -0.108106    0.000020   -0.000066    0.000366
H    -5.009144    1.617277   -0.065587   -0.000057   -0.000380    0.001899
8
* Frequency(21) 3132.4143
C    -8.212879    1.734911   -0.070240    0.003366   -0.020070    0.183402
C    -6.782824    2.213748    0.038689   -0.000122   -0.000078    0.001137
H    -8.276180    0.662615   -0.156981   -0.002725   -0.060143    0.017692
H    -8.503138    2.016103   -0.473139   -0.682912    0.679744   -1.039967
H    -8.933333    2.143110    1.329182    0.646839   -0.378067   -1.179287
O    -6.446201    3.361473    0.189857   -0.000008   -0.000002   -0.000319
O    -5.892442    1.209744   -0.108103    0.000020   -0.000066    0.000366
H    -5.009144    1.617273   -0.065569   -0.000057   -0.000380    0.001899
8
* Frequency(21) 3132.4143
C    -8.212723    1.733982   -0.061751    0.003366   -0.020070    0.183402
C    -6.782830    2.213745    0.038742   -0.000122   -0.000078    0.001137
H    -8.276306    0.659831   -0.156163   -0.002725   -0.060143    0.017692
H    -8.534745    2.047563   -0.521271   -0.682912    0.679744   -1.039967
H    -8.903396    2.125612    1.274602    0.646839   -0.378067   -1.179287
O    -6.446202    3.361473    0.189842   -0.000008   -0.000002   -0.000319
O    -5.892441    1.209741   -0.108086    0.000020   -0.000066    0.000366
H    -5.009147    1.617255   -0.065481   -0.000057   -0.000380    0.001899
8
* Frequency(21) 3132.4143
C    -8.212460    1.732415   -0.047440    0.003366   -0.020070    0.183402
C    -6.782839    2.213739    0.038831   -0.000122   -0.000078    0.001137
H    -8.276519    0.655138   -0.154782   -0.002725   -0.060143    0.017692
H    -8.588035    2.100606   -0.602424   -0.682912    0.679744   -1.039967
H    -8.852921    2.096110    1.182578    0.646839   -0.378067   -1.179287
O    -6.446202    3.361473    0.189817   -0.000008   -0.000002   -0.000319
O    -5.892440    1.209736   -0.108057    0.000020   -0.000066    0.000366
H    -5.009151    1.617226   -0.065333   -0.000057   -0.000380    0.001899
8
* Frequency(21) 3132.4143
C    -8.212119    1.730382   -0.028856    0.003366   -0.020070    0.183402
C    -6.782852    2.213731    0.038946   -0.000122   -0.000078    0.001137
H    -8.276795    0.649044   -0.152989   -0.002725   -0.060143    0.017692
H    -8.657234    2.169484   -0.707803   -0.682912    0.679744   -1.039967
H    -8.787377    2.057801    1.063081    0.646839   -0.378067   -1.179287
O    -6.446203    3.361473    0.189785   -0.000008   -0.000002   -0.000319
O    -5.892438    1.209729   -0.108020    0.000020   -0.000066    0.000366
H    -5.009157    1.617187   -0.065141   -0.000057   -0.000380    0.001899
8
* Frequency(21) 3132.4143
C    -8.211736    1.728101   -0.008013    0.003366   -0.020070    0.183402
C    -6.782866    2.213722    0.039075   -0.000122   -0.000078    0.001137
H    -8.277104    0.642209   -0.150979   -0.002725   -0.060143    0.017692
H    -8.734844    2.246734   -0.825990   -0.682912    0.679744   -1.039967
H    -8.713867    2.014836    0.929061    0.646839   -0.378067   -1.179287
O    -6.446204    3.361473    0.189749   -0.000008   -0.000002   -0.000319
O    -5.892435    1.209722   -0.107978    0.000020   -0.000066    0.000366
H    -5.009163    1.617144   -0.064925   -0.000057   -0.000380    0.001899
