3
* (null), Energy   -1000.0000000
O    -4.000000    0.000000    0.000000    0.000000    0.171001   -0.047588
H    -2.973650    0.000000    0.000000    0.000000   -1.357063    0.377660
H    -5.026350    0.000000    0.000000   -0.000000   -1.357063    0.377660
3
* Frequency(5) -1144.2759
O    -4.000000    0.019433   -0.005408    0.000000    0.171001   -0.047588
H    -2.973650   -0.154223    0.042919    0.000000   -1.357063    0.377660
H    -5.026350   -0.154223    0.042919   -0.000000   -1.357063    0.377660
3
* Frequency(5) -1144.2759
O    -4.000000    0.036761   -0.010230    0.000000    0.171001   -0.047588
H    -2.973650   -0.291734    0.081187    0.000000   -1.357063    0.377660
H    -5.026350   -0.291734    0.081187   -0.000000   -1.357063    0.377660
3
* Frequency(5) -1144.2759
O    -4.000000    0.050105   -0.013944    0.000000    0.171001   -0.047588
H    -2.973650   -0.397631    0.110658    0.000000   -1.357063    0.377660
H    -5.026350   -0.397631    0.110658   -0.000000   -1.357063    0.377660
3
* Frequency(5) -1144.2759
O    -4.000000    0.058019   -0.016146    0.000000    0.171001   -0.047588
H    -2.973650   -0.460438    0.128136    0.000000   -1.357063    0.377660
H    -5.026350   -0.460438    0.128136   -0.000000   -1.357063    0.377660
3
* Frequency(5) -1144.2759
O    -4.000000    0.059646   -0.016599    0.000000    0.171001   -0.047588
H    -2.973650   -0.473350    0.131730    0.000000   -1.357063    0.377660
H    -5.026350   -0.473350    0.131730   -0.000000   -1.357063    0.377660
3
* Frequency(5) -1144.2759
O    -4.000000    0.054809   -0.015253    0.000000    0.171001   -0.047588
H    -2.973650   -0.434967    0.121048    0.000000   -1.357063    0.377660
H    -5.026350   -0.434967    0.121048   -0.000000   -1.357063    0.377660
3
* Frequency(5) -1144.2759
O    -4.000000    0.044033   -0.012254    0.000000    0.171001   -0.047588
H    -2.973650   -0.349448    0.097249    0.000000   -1.357063    0.377660
H    -5.026350   -0.349448    0.097249   -0.000000   -1.357063    0.377660
3
* Frequency(5) -1144.2759
O    -4.000000    0.028486   -0.007927    0.000000    0.171001   -0.047588
H    -2.973650   -0.226062    0.062911    0.000000   -1.357063    0.377660
H    -5.026350   -0.226062    0.062911   -0.000000   -1.357063    0.377660
3
* Frequency(5) -1144.2759
O    -4.000000    0.009851   -0.002741    0.000000    0.171001   -0.047588
H    -2.973650   -0.078178    0.021756    0.000000   -1.357063    0.377660
H    -5.026350   -0.078178    0.021756   -0.000000   -1.357063    0.377660
3
* Frequency(5) -1144.2759
O    -4.000000   -0.009851    0.002741    0.000000    0.171001   -0.047588
H    -2.973650    0.078178   -0.021756    0.000000   -1.357063    0.377660
H    -5.026350    0.078178   -0.021756   -0.000000   -1.357063    0.377660
3
* Frequency(5) -1144.2759
O    -4.000000   -0.028486    0.007927    0.000000    0.171001   -0.047588
H    -2.973650    0.226062   -0.062911    0.000000   -1.357063    0.377660
H    -5.026350    0.226062   -0.062911   -0.000000   -1.357063    0.377660
3
* Frequency(5) -1144.2759
O    -4.000000   -0.044033    0.012254    0.000000    0.171001   -0.047588
H    -2.973650    0.349448   -0.097249    0.000000   -1.357063    0.377660
H    -5.026350    0.349448   -0.097249   -0.000000   -1.357063    0.377660
3
* Frequency(5) -1144.2759
O    -4.000000   -0.054809    0.015253    0.000000    0.171001   -0.047588
H    -2.973650    0.434967   -0.121048    0.000000   -1.357063    0.377660
H    -5.026350    0.434967   -0.121048   -0.000000   -1.357063    0.377660
3
* Frequency(5) -1144.2759
O    -4.000000   -0.059646    0.016599    0.000000    0.171001   -0.047588
H    -2.973650    0.473350   -0.131730    0.000000   -1.357063    0.377660
H    -5.026350    0.473350   -0.131730   -0.000000   -1.357063    0.377660
3
* Frequency(5) -1144.2759
O    -4.000000   -0.058019    0.016146    0.000000    0.171001   -0.047588
H    -2.973650    0.460438   -0.128136    0.000000   -1.357063    0.377660
H    -5.026350    0.460438   -0.128136   -0.000000   -1.357063    0.377660
3
* Frequency(5) -1144.2759
O    -4.000000   -0.050105    0.013944    0.000000    0.171001   -0.047588
H    -2.973650    0.397631   -0.110658    0.000000   -1.357063    0.377660
H    -5.026350    0.397631   -0.110658   -0.000000   -1.357063    0.377660
3
* Frequency(5) -1144.2759
O    -4.000000   -0.036761    0.010230    0.000000    0.171001   -0.047588
H    -2.973650    0.291734   -0.081187    0.000000   -1.357063    0.377660
H    -5.026350    0.291734   -0.081187   -0.000000   -1.357063    0.377660
3
* Frequency(5) -1144.2759
O    -4.000000   -0.019433    0.005408    0.000000    0.171001   -0.047588
H    -2.973650    0.154223   -0.042919    0.000000   -1.357063    0.377660
H    -5.026350    0.154223   -0.042919   -0.000000   -1.357063    0.377660
3
* Frequency(5) -1144.2759
O    -4.000000   -0.000000    0.000000    0.000000    0.171001   -0.047588
H    -2.973650    0.000000   -0.000000    0.000000   -1.357063    0.377660
H    -5.026350    0.000000   -0.000000   -0.000000   -1.357063    0.377660
