3
* (null), Energy   -1000.0000000
O    -4.000000    0.000000    0.000000    0.177499   -0.000000   -0.000000
H    -2.973650    0.000000    0.000000   -1.408633    0.000000    0.000000
H    -5.026350    0.000000    0.000000   -1.408633    0.000000    0.000000
3
* Frequency(8) 3334.4099
O    -3.979828   -0.000000   -0.000000    0.177499   -0.000000   -0.000000
H    -3.133734    0.000000    0.000000   -1.408633    0.000000    0.000000
H    -5.186434    0.000000    0.000000   -1.408633    0.000000    0.000000
3
* Frequency(8) 3334.4099
O    -3.961842   -0.000000   -0.000000    0.177499   -0.000000   -0.000000
H    -3.276470    0.000000    0.000000   -1.408633    0.000000    0.000000
H    -5.329170    0.000000    0.000000   -1.408633    0.000000    0.000000
3
* Frequency(8) 3334.4099
O    -3.947991   -0.000000   -0.000000    0.177499   -0.000000   -0.000000
H    -3.386391    0.000000    0.000000   -1.408633    0.000000    0.000000
H    -5.439091    0.000000    0.000000   -1.408633    0.000000    0.000000
3
* Frequency(8) 3334.4099
O    -3.939776   -0.000000   -0.000000    0.177499   -0.000000   -0.000000
H    -3.451585    0.000000    0.000000   -1.408633    0.000000    0.000000
H    -5.504285    0.000000    0.000000   -1.408633    0.000000    0.000000
3
* Frequency(8) 3334.4099
O    -3.938088   -0.000000   -0.000000    0.177499   -0.000000   -0.000000
H    -3.464988    0.000000    0.000000   -1.408633    0.000000    0.000000
H    -5.517688    0.000000    0.000000   -1.408633    0.000000    0.000000
3
* Frequency(8) 3334.4099
O    -3.943108   -0.000000   -0.000000    0.177499   -0.000000   -0.000000
H    -3.425146    0.000000    0.000000   -1.408633    0.000000    0.000000
H    -5.477846    0.000000    0.000000   -1.408633    0.000000    0.000000
3
* Frequency(8) 3334.4099
O    -3.954293   -0.000000   -0.000000    0.177499   -0.000000   -0.000000
H    -3.336378    0.000000    0.000000   -1.408633    0.000000    0.000000
H    -5.389078    0.000000    0.000000   -1.408633    0.000000    0.000000
3
* Frequency(8) 3334.4099
O    -3.970432   -0.000000   -0.000000    0.177499   -0.000000   -0.000000
H    -3.208302    0.000000    0.000000   -1.408633    0.000000    0.000000
H    -5.261002    0.000000    0.000000   -1.408633    0.000000    0.000000
3
* Frequency(8) 3334.4099
O    -3.989775   -0.000000   -0.000000    0.177499   -0.000000   -0.000000
H    -3.054799    0.000000    0.000000   -1.408633    0.000000    0.000000
H    -5.107499    0.000000    0.000000   -1.408633    0.000000    0.000000
3
* Frequency(8) 3334.4099
O    -4.010225    0.000000    0.000000    0.177499   -0.000000   -0.000000
H    -2.892501   -0.000000   -0.000000   -1.408633    0.000000    0.000000
H    -4.945201   -0.000000   -0.000000   -1.408633    0.000000    0.000000
3
* Frequency(8) 3334.4099
O    -4.029568    0.000000    0.000000    0.177499   -0.000000   -0.000000
H    -2.738998   -0.000000   -0.000000   -1.408633    0.000000    0.000000
H    -4.791698   -0.000000   -0.000000   -1.408633    0.000000    0.000000
3
* Frequency(8) 3334.4099
O    -4.045707    0.000000    0.000000    0.177499   -0.000000   -0.000000
H    -2.610922   -0.000000   -0.000000   -1.408633    0.000000    0.000000
H    -4.663622   -0.000000   -0.000000   -1.408633    0.000000    0.000000
3
* Frequency(8) 3334.4099
O    -4.056892    0.000000    0.000000    0.177499   -0.000000   -0.000000
H    -2.522154   -0.000000   -0.000000   -1.408633    0.000000    0.000000
H    -4.574854   -0.000000   -0.000000   -1.408633    0.000000    0.000000
3
* Frequency(8) 3334.4099
O    -4.061912    0.000000    0.000000    0.177499   -0.000000   -0.000000
H    -2.482312   -0.000000   -0.000000   -1.408633    0.000000    0.000000
H    -4.535012   -0.000000   -0.000000   -1.408633    0.000000    0.000000
3
* Frequency(8) 3334.4099
O    -4.060224    0.000000    0.000000    0.177499   -0.000000   -0.000000
H    -2.495715   -0.000000   -0.000000   -1.408633    0.000000    0.000000
H    -4.548415   -0.000000   -0.000000   -1.408633    0.000000    0.000000
3
* Frequency(8) 3334.4099
O    -4.052009    0.000000    0.000000    0.177499   -0.000000   -0.000000
H    -2.560909   -0.000000   -0.000000   -1.408633    0.000000    0.000000
H    -4.613609   -0.000000   -0.000000   -1.408633    0.000000    0.000000
3
* Frequency(8) 3334.4099
O    -4.038158    0.000000    0.000000    0.177499   -0.000000   -0.000000
H    -2.670830   -0.000000   -0.000000   -1.408633    0.000000    0.000000
H    -4.723530   -0.000000   -0.000000   -1.408633    0.000000    0.000000
3
* Frequency(8) 3334.4099
O    -4.020172    0.000000    0.000000    0.177499   -0.000000   -0.000000
H    -2.813566   -0.000000   -0.000000   -1.408633    0.000000    0.000000
H    -4.866266   -0.000000   -0.000000   -1.408633    0.000000    0.000000
3
* Frequency(8) 3334.4099
O    -4.000000    0.000000    0.000000    0.177499   -0.000000   -0.000000
H    -2.973650   -0.000000   -0.000000   -1.408633    0.000000    0.000000
H    -5.026350   -0.000000   -0.000000   -1.408633    0.000000    0.000000
