3
* (null), Energy   -1000.0000000
O    -3.932757   -0.064161    0.020434   -0.099272   -0.095771    0.030501
H    -2.978546    0.059400   -0.018918    1.389388    0.179498   -0.057167
H    -4.058847   -0.973790    0.310134    0.186264    1.340587   -0.426952
3
* Frequency(8) 3887.5969
O    -3.944038   -0.075045    0.023900   -0.099272   -0.095771    0.030501
H    -2.820649    0.079799   -0.025415    1.389388    0.179498   -0.057167
H    -4.037679   -0.821439    0.261613    0.186264    1.340587   -0.426952
3
* Frequency(8) 3887.5969
O    -3.954098   -0.084749    0.026991   -0.099272   -0.095771    0.030501
H    -2.679863    0.097988   -0.031207    1.389388    0.179498   -0.057167
H    -4.018805   -0.685598    0.218350    0.186264    1.340587   -0.426952
3
* Frequency(8) 3887.5969
O    -3.961844   -0.092222    0.029371   -0.099272   -0.095771    0.030501
H    -2.571444    0.111995   -0.035668    1.389388    0.179498   -0.057167
H    -4.004271   -0.580986    0.185033    0.186264    1.340587   -0.426952
3
* Frequency(8) 3887.5969
O    -3.966439   -0.096655    0.030783   -0.099272   -0.095771    0.030501
H    -2.507140    0.120302   -0.038314    1.389388    0.179498   -0.057167
H    -3.995650   -0.518942    0.165273    0.186264    1.340587   -0.426952
3
* Frequency(8) 3887.5969
O    -3.967383   -0.097566    0.031073   -0.099272   -0.095771    0.030501
H    -2.493921    0.122010   -0.038858    1.389388    0.179498   -0.057167
H    -3.993878   -0.506187    0.161211    0.186264    1.340587   -0.426952
3
* Frequency(8) 3887.5969
O    -3.964575   -0.094857    0.030210   -0.099272   -0.095771    0.030501
H    -2.533218    0.116933   -0.037241    1.389388    0.179498   -0.057167
H    -3.999146   -0.544104    0.173287    0.186264    1.340587   -0.426952
3
* Frequency(8) 3887.5969
O    -3.958320   -0.088822    0.028288   -0.099272   -0.095771    0.030501
H    -2.620774    0.105621   -0.033638    1.389388    0.179498   -0.057167
H    -4.010884   -0.628584    0.200192    0.186264    1.340587   -0.426952
3
* Frequency(8) 3887.5969
O    -3.949294   -0.080114    0.025515   -0.099272   -0.095771    0.030501
H    -2.747100    0.089301   -0.028441    1.389388    0.179498   -0.057167
H    -4.027819   -0.750472    0.239012    0.186264    1.340587   -0.426952
3
* Frequency(8) 3887.5969
O    -3.938475   -0.069678    0.022191   -0.099272   -0.095771    0.030501
H    -2.898506    0.069741   -0.022211    1.389388    0.179498   -0.057167
H    -4.048117   -0.896561    0.285538    0.186264    1.340587   -0.426952
3
* Frequency(8) 3887.5969
O    -3.927038   -0.058643    0.018677   -0.099272   -0.095771    0.030501
H    -3.058586    0.049060   -0.015625    1.389388    0.179498   -0.057167
H    -4.069578   -1.051018    0.334730    0.186264    1.340587   -0.426952
3
* Frequency(8) 3887.5969
O    -3.916220   -0.048207    0.015353   -0.099272   -0.095771    0.030501
H    -3.209992    0.029499   -0.009395    1.389388    0.179498   -0.057167
H    -4.089876   -1.197107    0.381256    0.186264    1.340587   -0.426952
3
* Frequency(8) 3887.5969
O    -3.907194   -0.039499    0.012580   -0.099272   -0.095771    0.030501
H    -3.336318    0.013179   -0.004197    1.389388    0.179498   -0.057167
H    -4.106811   -1.318995    0.420076    0.186264    1.340587   -0.426952
3
* Frequency(8) 3887.5969
O    -3.900938   -0.033464    0.010658   -0.099272   -0.095771    0.030501
H    -3.423874    0.001867   -0.000595    1.389388    0.179498   -0.057167
H    -4.118549   -1.403476    0.446981    0.186264    1.340587   -0.426952
3
* Frequency(8) 3887.5969
O    -3.898130   -0.030755    0.009795   -0.099272   -0.095771    0.030501
H    -3.463171   -0.003209    0.001022    1.389388    0.179498   -0.057167
H    -4.123817   -1.441393    0.459057    0.186264    1.340587   -0.426952
3
* Frequency(8) 3887.5969
O    -3.899074   -0.031666    0.010085   -0.099272   -0.095771    0.030501
H    -3.449952   -0.001502    0.000478    1.389388    0.179498   -0.057167
H    -4.122045   -1.428638    0.454995    0.186264    1.340587   -0.426952
3
* Frequency(8) 3887.5969
O    -3.903669   -0.036099    0.011497   -0.099272   -0.095771    0.030501
H    -3.385648    0.006806   -0.002168    1.389388    0.179498   -0.057167
H    -4.113424   -1.366593    0.435234    0.186264    1.340587   -0.426952
3
* Frequency(8) 3887.5969
O    -3.911416   -0.043572    0.013877   -0.099272   -0.095771    0.030501
H    -3.277229    0.020813   -0.006628    1.389388    0.179498   -0.057167
H    -4.098889   -1.261982    0.401918    0.186264    1.340587   -0.426952
3
* Frequency(8) 3887.5969
O    -3.921475   -0.053277    0.016968   -0.099272   -0.095771    0.030501
H    -3.136443    0.039001   -0.012421    1.389388    0.179498   -0.057167
H    -4.080015   -1.126140    0.358655    0.186264    1.340587   -0.426952
3
* Frequency(8) 3887.5969
O    -3.932757   -0.064161    0.020434   -0.099272   -0.095771    0.030501
H    -2.978546    0.059400   -0.018918    1.389388    0.179498   -0.057167
H    -4.058847   -0.973790    0.310134    0.186264    1.340587   -0.426952
