
                                 *****************
                                 * O   R   C   A *
                                 *****************

           --- An Ab Initio, DFT and Semiempirical electronic structure package ---

                  #######################################################
                  #                        -***-                        #
                  #          Department of theory and spectroscopy      #
                  #               Directorship: Frank Neese             #
                  #        Max Planck Institute fuer Kohlenforschung    #
                  #                Kaiser Wilhelm Platz 1               #
                  #                 D-45470 Muelheim/Ruhr               #
                  #                      Germany                        #
                  #                                                     #
                  #                  All rights reserved                #
                  #                        -***-                        #
                  #######################################################


                         Program Version 4.2.1 -  RELEASE  -


 With contributions from (in alphabetic order):
   Daniel Aravena         : Magnetic Suceptibility
   Michael Atanasov       : Ab Initio Ligand Field Theory (pilot matlab implementation)
   Alexander A. Auer      : GIAO ZORA, VPT2
   Ute Becker             : Parallelization
   Giovanni Bistoni       : ED, misc. LED, open-shell LED, HFLD
   Martin Brehm           : Molecular dynamics
   Dmytro Bykov           : SCF Hessian
   Vijay G. Chilkuri      : MRCI spin determinant printing, contributions to CSF-ICE
   Dipayan Datta          : RHF DLPNO-CCSD density
   Achintya Kumar Dutta   : EOM-CC, STEOM-CC
   Dmitry Ganyushin       : Spin-Orbit,Spin-Spin,Magnetic field MRCI
   Miquel Garcia          : C-PCM Hessian, Gaussian charge scheme
   Yang Guo               : DLPNO-NEVPT2, CIM, IAO-localization
   Andreas Hansen         : Spin unrestricted coupled pair/coupled cluster methods
   Benjamin Helmich-Paris : CASSCF linear response (MC-RPA)
   Lee Huntington         : MR-EOM, pCC
   Robert Izsak           : Overlap fitted RIJCOSX, COSX-SCS-MP3, EOM
   Christian Kollmar      : KDIIS, OOCD, Brueckner-CCSD(T), CCSD density
   Simone Kossmann        : Meta GGA functionals, TD-DFT gradient, OOMP2, MP2 Hessian
   Martin Krupicka        : AUTO-CI
   Lucas Lang             : DCDCAS
   Dagmar Lenk            : GEPOL surface, SMD
   Dimitrios Liakos       : Extrapolation schemes; Compound Job, initial MDCI parallelization
   Dimitrios Manganas     : Further ROCIS development; embedding schemes
   Dimitrios Pantazis     : SARC Basis sets
   Taras Petrenko         : DFT Hessian,TD-DFT gradient, ASA, ECA, R-Raman, ABS, FL, XAS/XES, NRVS
   Peter Pinski           : DLPNO-MP2, DLPNO-MP2 Gradient
   Christoph Reimann      : Effective Core Potentials
   Marius Retegan         : Local ZFS, SOC
   Christoph Riplinger    : Optimizer, TS searches, QM/MM, DLPNO-CCSD(T), (RO)-DLPNO pert. Triples
   Tobias Risthaus        : Range-separated hybrids, TD-DFT gradient, RPA, STAB
   Michael Roemelt        : Original ROCIS implementation
   Masaaki Saitow         : Open-shell DLPNO-CCSD energy and density
   Barbara Sandhoefer     : DKH picture change effects
   Avijit Sen             : IP-ROCIS
   Kantharuban Sivalingam : CASSCF convergence, NEVPT2, FIC-MRCI
   Bernardo de Souza      : ESD, SOC TD-DFT
   Georgi Stoychev        : AutoAux, RI-MP2 NMR
   Willem Van den Heuvel  : Paramagnetic NMR
   Boris Wezisla          : Elementary symmetry handling
   Frank Wennmohs         : Technical directorship


 We gratefully acknowledge several colleagues who have allowed us to
 interface, adapt or use parts of their codes:
   Stefan Grimme, W. Hujo, H. Kruse,             : VdW corrections, initial TS optimization,
                  C. Bannwarth                     DFT functionals, gCP, sTDA/sTD-DF
   Ed Valeev, F. Pavosevic, A. Kumar             : LibInt (2-el integral package), F12 methods
   Garnet Chan, S. Sharma, J. Yang, R. Olivares  : DMRG
   Ulf Ekstrom                                   : XCFun DFT Library
   Mihaly Kallay                                 : mrcc  (arbitrary order and MRCC methods)
   Andreas Klamt, Michael Diedenhofen            : otool_cosmo (COSMO solvation model)
   Jiri Pittner, Ondrej Demel                    : Mk-CCSD
   Frank Weinhold                                : gennbo (NPA and NBO analysis)
   Christopher J. Cramer and Donald G. Truhlar   : smd solvation model
   Lars Goerigk                                  : TD-DFT with DH, B97 family of functionals
   V. Asgeirsson, H. Jonsson                     : NEB implementation
   FAccTs GmbH                                   : IRC, NEB, NEB-TS, Multilevel, MM, QM/MM, CI optimization
   S Lehtola, MJT Oliveira, MAL Marques          : LibXC Library


 Your calculation uses the libint2 library for the computation of 2-el integrals
 For citations please refer to: http://libint.valeyev.net

 Your ORCA version has been built with support for libXC version: 4.2.3
 For citations please refer to: https://tddft.org/programs/libxc/

 This ORCA versions uses:
   CBLAS   interface :  Fast vector & matrix operations
   LAPACKE interface :  Fast linear algebra routines


----- Orbital basis set information -----
Your calculation utilizes the basis: def2-SVP
   F. Weigend and R. Ahlrichs, Phys. Chem. Chem. Phys. 7, 3297 (2005).

================================================================================
                                        WARNINGS
                       Please study these warnings very carefully!
================================================================================


WARNING: Geometry Optimization
  ===> : Switching off AutoStart
         For restart on a previous wavefunction, please use MOREAD

INFO   : the flag for use of LIBINT has been found!

================================================================================
                                       INPUT FILE
================================================================================
NAME = AcOH.inp
|  1> !B3LYP DEF2-SVP FREQ

|  2> !VERYTIGHTOPT

|  3> * XYZ 0 1

|  4> C         -8.23508        1.75252       -0.00446

|  5> C         -6.80437        2.18360        0.03487

|  6> H         -8.30301        0.65382       -0.15041

|  7> H         -8.75566        2.25995       -0.84350

|  8> H         -8.73273        2.02013        0.95115

|  9> O         -6.52860        3.36373        0.18904

| 10> O         -5.82021        1.26961       -0.09983

| 11> H         -4.88856        1.53058       -0.07686

| 12> **                         ****END OF INPUT****
================================================================================

                       *****************************
                       * Geometry Optimization Run *
                       *****************************

Geometry optimization settings:
Update method            Update   .... BFGS
Choice of coordinates    CoordSys .... Z-matrix Internals
Initial Hessian          InHess   .... Almoef's Model

Convergence Tolerances:
Energy Change            TolE     ....  2.0000e-07 Eh
Max. Gradient            TolMAXG  ....  3.0000e-05 Eh/bohr
RMS Gradient             TolRMSG  ....  8.0000e-06 Eh/bohr
Max. Displacement        TolMAXD  ....  2.0000e-04 bohr
RMS Displacement         TolRMSD  ....  1.0000e-04 bohr
Strict Convergence                ....  False
------------------------------------------------------------------------------
                        ORCA OPTIMIZATION COORDINATE SETUP
------------------------------------------------------------------------------

The optimization will be done in new redundant internal coordinates
Making redundant internal coordinates   ...  (new redundants) done
Evaluating the initial hessian          ...  (Almloef) done
Evaluating the coordinates              ...  done
Calculating the B-matrix                .... done
Calculating the G-matrix                .... done
Diagonalizing the G-matrix              .... done
The first mode is                       ....    7
The number of degrees of freedom        ....   18

    -----------------------------------------------------------------
                    Redundant Internal Coordinates


    -----------------------------------------------------------------
         Definition                    Initial Value    Approx d2E/dq
    -----------------------------------------------------------------
      1. B(C   1,C   0)                  1.4948         0.425207   
      2. B(H   2,C   0)                  1.1104         0.334061   
      3. B(H   3,C   0)                  1.1102         0.334383   
      4. B(H   4,C   0)                  1.1102         0.334391   
      5. B(O   5,C   1)                  1.2217         1.038496   
      6. B(O   6,C   1)                  1.3498         0.648535   
      7. B(H   7,O   6)                  0.9678         0.505299   
      8. A(C   1,C   0,H   2)          110.3259         0.327234   
      9. A(C   1,C   0,H   4)          109.6876         0.327287   
     10. A(H   2,C   0,H   4)          108.9185         0.284140   
     11. A(C   1,C   0,H   3)          109.6878         0.327286   
     12. A(H   3,C   0,H   4)          109.2796         0.284183   
     13. A(H   2,C   0,H   3)          108.9186         0.284139   
     14. A(C   0,C   1,O   5)          119.8651         0.442138   
     15. A(O   5,C   1,O   6)          120.1383         0.474346   
     16. A(C   0,C   1,O   6)          119.9966         0.406442   
     17. A(C   1,O   6,H   7)          121.1254         0.371162   
     18. D(O   5,C   1,C   0,H   2)    179.9996         0.013360   
     19. D(O   6,C   1,C   0,H   2)     -0.0003         0.013360   
     20. D(O   5,C   1,C   0,H   3)     60.0154         0.013360   
     21. D(O   6,C   1,C   0,H   3)   -119.9845         0.013360   
     22. D(O   6,C   1,C   0,H   4)    119.9838         0.013360   
     23. D(O   5,C   1,C   0,H   4)    -60.0163         0.013360   
     24. D(H   7,O   6,C   1,C   0)    179.9998         0.031073   
     25. D(H   7,O   6,C   1,O   5)     -0.0001         0.031073   
    -----------------------------------------------------------------

Number of atoms                         .... 8
Number of degrees of freedom            .... 25

         *************************************************************
         *                GEOMETRY OPTIMIZATION CYCLE   1            *
         *************************************************************
---------------------------------
CARTESIAN COORDINATES (ANGSTROEM)
---------------------------------
  C     -8.235080    1.752520   -0.004460
  C     -6.804370    2.183600    0.034870
  H     -8.303010    0.653820   -0.150410
  H     -8.755660    2.259950   -0.843500
  H     -8.732730    2.020130    0.951150
  O     -6.528600    3.363730    0.189040
  O     -5.820210    1.269610   -0.099830
  H     -4.888560    1.530580   -0.076860

----------------------------
CARTESIAN COORDINATES (A.U.)
----------------------------
  NO LB      ZA    FRAG     MASS         X           Y           Z
   0 C     6.0000    0    12.011  -15.562046    3.311783   -0.008428
   1 C     6.0000    0    12.011  -12.858396    4.126406    0.065895
   2 H     1.0000    0     1.008  -15.690415    1.235541   -0.284234
   3 H     1.0000    0     1.008  -16.545800    4.270687   -1.593984
   4 H     1.0000    0     1.008  -16.502468    3.817492    1.797413
   5 O     8.0000    0    15.999  -12.337266    6.356528    0.357234
   6 O     8.0000    0    15.999  -10.998603    2.399215   -0.188651
   7 H     1.0000    0     1.008   -9.238040    2.892377   -0.145244

--------------------------------
INTERNAL COORDINATES (ANGSTROEM)
--------------------------------
 C      0   0   0     0.000000000000     0.00000000     0.00000000
 C      1   0   0     1.494760154473     0.00000000     0.00000000
 H      1   2   0     1.110431257395   110.32585013     0.00000000
 H      1   2   3     1.110169745084   109.68778877   240.01575460
 H      1   2   3     1.110162648759   109.68762061   119.98408548
 O      2   1   3     1.221689117042   119.86512789   179.99964557
 O      2   1   3     1.349849145534   119.99661076     0.00000000
 H      7   2   1     0.967783387076   121.12537532   179.99978854

---------------------------
INTERNAL COORDINATES (A.U.)
---------------------------
 C      0   0   0     0.000000000000     0.00000000     0.00000000
 C      1   0   0     2.824687327852     0.00000000     0.00000000
 H      1   2   0     2.098410967023   110.32585013     0.00000000
 H      1   2   3     2.097916780374   109.68778877   240.01575460
 H      1   2   3     2.097903370263   109.68762061   119.98408548
 O      2   1   3     2.308657852002   119.86512789   179.99964557
 O      2   1   3     2.550845207168   119.99661076     0.00000000
 H      7   2   1     1.828845558532   121.12537532   179.99978854

---------------------
BASIS SET INFORMATION
---------------------
There are 3 groups of distinct atoms

 Group   1 Type C   : 7s4p1d contracted to 3s2p1d pattern {511/31/1}
 Group   2 Type H   : 4s1p contracted to 2s1p pattern {31/1}
 Group   3 Type O   : 7s4p1d contracted to 3s2p1d pattern {511/31/1}

Atom   0C    basis set group =>   1
Atom   1C    basis set group =>   1
Atom   2H    basis set group =>   2
Atom   3H    basis set group =>   2
Atom   4H    basis set group =>   2
Atom   5O    basis set group =>   3
Atom   6O    basis set group =>   3
Atom   7H    basis set group =>   2
------------------------------------------------------------------------------
                           ORCA GTO INTEGRAL CALCULATION
------------------------------------------------------------------------------

                         BASIS SET STATISTICS AND STARTUP INFO

 # of primitive gaussian shells          ...   68
 # of primitive gaussian functions       ...  124
 # of contracted shells                  ...   36
 # of contracted basis functions         ...   76
 Highest angular momentum                ...    2
 Maximum contraction depth               ...    5
 Integral package used                   ... LIBINT
 Integral threshhold            Thresh   ...  1.000e-13
 Primitive cut-off              TCut     ...  1.000e-14


------------------------------ INTEGRAL EVALUATION ----------------------------


 * One electron integrals 
 Pre-screening matrix                    ... done
 Shell pair data                         ... done (   0.001 sec)

Timings:
 Total evaluation time               ...     0.001 sec (   0.000 min)
 One electron matrix time            ...     0.005 sec (   0.000 min) =500.0%
 Schwartz matrix evaluation time     ...     0.086 sec (   0.001 min) =8600.0%

-------------------------------------------------------------------------------
                                 ORCA SCF
-------------------------------------------------------------------------------

------------
SCF SETTINGS
------------
Hamiltonian:
 Density Functional     Method          .... DFT(GTOs)
 Exchange Functional    Exchange        .... B88
   X-Alpha parameter    XAlpha          ....  0.666667
   Becke's b parameter  XBeta           ....  0.004200
 Correlation Functional Correlation     .... LYP
 LDA part of GGA corr.  LDAOpt          .... VWN-5
 Gradients option       PostSCFGGA      .... off
 Hybrid DFT is turned on
   Fraction HF Exchange ScalHFX         ....  0.200000
   Scaling of DF-GGA-X  ScalDFX         ....  0.720000
   Scaling of DF-GGA-C  ScalDFC         ....  0.810000
   Scaling of DF-LDA-C  ScalLDAC        ....  1.000000
   Perturbative correction              ....  0.000000
   Density functional embedding theory  .... OFF
   NL short-range parameter             ....  4.800000


General Settings:
 Integral files         IntName         .... AcOH
 Hartree-Fock type      HFTyp           .... RHF
 Total Charge           Charge          ....    0
 Multiplicity           Mult            ....    1
 Number of Electrons    NEL             ....   32
 Basis Dimension        Dim             ....   76
 Nuclear Repulsion      ENuc            ....    120.3067417317 Eh

Convergence Acceleration:
 DIIS                   CNVDIIS         .... on
   Start iteration      DIISMaxIt       ....    12
   Startup error        DIISStart       ....  0.200000
   # of expansion vecs  DIISMaxEq       ....     5
   Bias factor          DIISBfac        ....   1.050
   Max. coefficient     DIISMaxC        ....  10.000
 Newton-Raphson         CNVNR           .... off
 SOSCF                  CNVSOSCF        .... on
   Start iteration      SOSCFMaxIt      ....   150
   Startup grad/error   SOSCFStart      ....  0.003300
 Level Shifting         CNVShift        .... on
   Level shift para.    LevelShift      ....    0.2500
   Turn off err/grad.   ShiftErr        ....    0.0010
 Zerner damping         CNVZerner       .... off
 Static damping         CNVDamp         .... on
   Fraction old density DampFac         ....    0.7000
   Max. Damping (<1)    DampMax         ....    0.9800
   Min. Damping (>=0)   DampMin         ....    0.0000
   Turn off err/grad.   DampErr         ....    0.1000
 Fernandez-Rico         CNVRico         .... off

SCF Procedure:
 Maximum # iterations   MaxIter         ....   125
 SCF integral mode      SCFMode         .... Direct
   Integral package                     .... LIBINT
 Reset frequency        DirectResetFreq ....    20
 Integral Threshold     Thresh          ....  1.000e-13 Eh
 Primitive CutOff       TCut            ....  1.000e-14 Eh

Convergence Tolerance:
 Convergence Check Mode ConvCheckMode   .... Total+1el-Energy
 Convergence forced     ConvForced      .... 0
 Energy Change          TolE            ....  1.000e-10 Eh
 1-El. energy change                    ....  1.000e-07 Eh
 Orbital Gradient       TolG            ....  1.000e-06
 Orbital Rotation angle TolX            ....  1.000e-06
 DIIS Error             TolErr          ....  1.000e-10


Diagonalization of the overlap matrix:
Smallest eigenvalue                        ... 3.443e-03
Time for diagonalization                   ...    0.001 sec
Threshold for overlap eigenvalues          ... 1.000e-08
Number of eigenvalues below threshold      ... 0
Time for construction of square roots      ...    0.001 sec
Total time needed                          ...    0.002 sec

-------------------
DFT GRID GENERATION
-------------------

General Integration Accuracy     IntAcc      ...  4.340
Radial Grid Type                 RadialGrid  ... Gauss-Chebyshev
Angular Grid (max. acc.)         AngularGrid ... Lebedev-110
Angular grid pruning method      GridPruning ... 3 (G Style)
Weight generation scheme         WeightScheme... Becke
Basis function cutoff            BFCut       ...    3.0000e-14
Integration weight cutoff        WCut        ...    1.0000e-14
Grids for H and He will be reduced by one unit

# of grid points (after initial pruning)     ...   9920 (   0.0 sec)
# of grid points (after weights+screening)   ...   9562 (   0.0 sec)
nearest neighbour list constructed           ...    0.0 sec
Grid point re-assignment to atoms done       ...    0.0 sec
Grid point division into batches done        ...    0.0 sec
Reduced shell lists constructed in    0.0 sec

Total number of grid points                  ...     9562
Total number of batches                      ...      154
Average number of points per batch           ...       62
Average number of grid points per atom       ...     1195
Average number of shells per batch           ...    30.71 (85.30%)
Average number of basis functions per batch  ...    65.52 (86.21%)
Average number of large shells per batch     ...    26.55 (86.47%)
Average number of large basis fcns per batch ...    55.47 (84.66%)
Maximum spatial batch extension              ...  17.36, 25.60, 25.68 au
Average spatial batch extension              ...   4.17,  4.33,  4.44 au

Time for grid setup =    0.028 sec

------------------------------
INITIAL GUESS: MODEL POTENTIAL
------------------------------
Loading Hartree-Fock densities                     ... done
Calculating cut-offs                               ... done
Setting up the integral package                    ... done
Initializing the effective Hamiltonian             ... done
Starting the Coulomb interaction                   ... done (   0.0 sec)
Reading the grid                                   ... done
Mapping shells                                     ... done
Starting the XC term evaluation                    ... done (   0.0 sec)
  promolecular density results
     # of electrons  =     32.001935564
     EX              =    -27.842808186
     EC              =     -1.095027009
     EX+EC           =    -28.937835195
Transforming the Hamiltonian                       ... done (   0.0 sec)
Diagonalizing the Hamiltonian                      ... done (   0.0 sec)
Back transforming the eigenvectors                 ... done (   0.0 sec)
Now organizing SCF variables                       ... done
                      ------------------
                      INITIAL GUESS DONE (   0.1 sec)
                      ------------------
--------------
SCF ITERATIONS
--------------
ITER       Energy         Delta-E        Max-DP      RMS-DP      [F,P]     Damp
               ***  Starting incremental Fock matrix formation  ***
  0   -228.6035321095   0.000000000000 0.10753748  0.00495970  0.2852037 0.7000
  1   -228.6942737181  -0.090741608625 0.06264982  0.00293983  0.1093749 0.7000
                               ***Turning on DIIS***
  2   -228.7243555113  -0.030081793147 0.07152250  0.00375367  0.0409885 0.0000
  3   -228.7772208212  -0.052865309924 0.04046491  0.00208987  0.0557821 0.0000
  4   -228.7870356999  -0.009814878733 0.00952561  0.00056839  0.0154605 0.0000
                      *** Initiating the SOSCF procedure ***
                           *** Shutting down DIIS ***
                      *** Re-Reading the Fockian *** 
                      *** Removing any level shift *** 
ITER      Energy       Delta-E        Grad      Rot      Max-DP    RMS-DP
  5   -228.78792415  -0.0008884460  0.000790  0.000790  0.002623  0.000162
               *** Restarting incremental Fock matrix formation ***
  6   -228.78794836  -0.0000242141  0.000620  0.001970  0.002470  0.000119
  7   -228.78794095   0.0000074065  0.001371  0.001470  0.001490  0.000067
  8   -228.78795370  -0.0000127484  0.000169  0.000359  0.000738  0.000030
  9   -228.78795323   0.0000004735  0.000275  0.000230  0.000436  0.000017
 10   -228.78795406  -0.0000008350  0.000018  0.000035  0.000097  0.000004
 11   -228.78795406   0.0000000043  0.000025  0.000020  0.000058  0.000002
 12   -228.78795407  -0.0000000110  0.000001  0.000001  0.000002  0.000000
 13   -228.78795407  -0.0000000000  0.000001  0.000000  0.000001  0.000000
                  ***Gradient check signals convergence***
              ***Rediagonalizing the Fockian in SOSCF/NRSCF***

               *****************************************************
               *                     SUCCESS                       *
               *           SCF CONVERGED AFTER  14 CYCLES          *
               *****************************************************

Setting up the final grid:

General Integration Accuracy     IntAcc      ...  4.670
Radial Grid Type                 RadialGrid  ... Gauss-Chebyshev
Angular Grid (max. acc.)         AngularGrid ... Lebedev-302
Angular grid pruning method      GridPruning ... 3 (G Style)
Weight generation scheme         WeightScheme... Becke
Basis function cutoff            BFCut       ...    3.0000e-14
Integration weight cutoff        WCut        ...    1.0000e-14
Grids for H and He will be reduced by one unit

# of grid points (after initial pruning)     ...  38424 (   0.0 sec)
# of grid points (after weights+screening)   ...  36717 (   0.0 sec)
nearest neighbour list constructed           ...    0.0 sec
Grid point re-assignment to atoms done       ...    0.0 sec
Grid point division into batches done        ...    0.1 sec
Reduced shell lists constructed in    0.2 sec

Total number of grid points                  ...    36717
Total number of batches                      ...      578
Average number of points per batch           ...       63
Average number of grid points per atom       ...     4590
Average number of shells per batch           ...    28.56 (79.33%)
Average number of basis functions per batch  ...    60.56 (79.69%)
Average number of large shells per batch     ...    24.12 (84.48%)
Average number of large basis fcns per batch ...    50.00 (82.55%)
Maximum spatial batch extension              ...  19.29, 18.09, 19.37 au
Average spatial batch extension              ...   2.82,  2.97,  2.95 au

Final grid set up in    0.2 sec
Final integration                            ... done (   0.1 sec)
Change in XC energy                          ...    -0.000127187
Integrated number of electrons               ...    31.999989839
Previous integrated no of electrons          ...    32.001082391

----------------
TOTAL SCF ENERGY
----------------

Total Energy       :         -228.78808126 Eh           -6225.64020 eV

Components:
Nuclear Repulsion  :          120.30674173 Eh            3273.71287 eV
Electronic Energy  :         -349.09482299 Eh           -9499.35307 eV
One Electron Energy:         -550.39072060 Eh          -14976.89292 eV
Two Electron Energy:          201.29589761 Eh            5477.53985 eV

Virial components:
Potential Energy   :         -455.63814331 Eh          -12398.54421 eV
Kinetic Energy     :          226.85006205 Eh            6172.90401 eV
Virial Ratio       :            2.00854317


DFT components:
N(Alpha)           :       15.999994919659 electrons
N(Beta)            :       15.999994919659 electrons
N(Total)           :       31.999989839318 electrons
E(X)               :      -22.434621999452 Eh       
E(C)               :       -1.297140139400 Eh       
E(XC)              :      -23.731762138852 Eh       
DFET-embed. en.    :        0.000000000000 Eh       

---------------
SCF CONVERGENCE
---------------

  Last Energy change         ...   -4.1211e-12  Tolerance :   1.0000e-10
  Last MAX-Density change    ...    2.5405e-07  Tolerance :   1.0000e-05
  Last RMS-Density change    ...    1.2383e-08  Tolerance :   1.0000e-06
  Last Orbital Gradient      ...    5.0477e-08  Tolerance :   1.0000e-06
  Last Orbital Rotation      ...    6.8213e-08  Tolerance :   1.0000e-06

             **** THE GBW FILE WAS UPDATED (AcOH.gbw) ****
             **** DENSITY FILE WAS UPDATED (AcOH.scfp) ****
             **** ENERGY FILE WAS UPDATED (AcOH.en.tmp) ****
             **** THE GBW FILE WAS UPDATED (AcOH.gbw) ****
             **** DENSITY FILE WAS UPDATED (AcOH.scfp) ****
----------------
ORBITAL ENERGIES
----------------

  NO   OCC          E(Eh)            E(eV) 
   0   2.0000     -19.172831      -521.7193 
   1   2.0000     -19.105337      -519.8827 
   2   2.0000     -10.315436      -280.6973 
   3   2.0000     -10.205446      -277.7043 
   4   2.0000      -1.080799       -29.4100 
   5   2.0000      -0.986024       -26.8311 
   6   2.0000      -0.747777       -20.3480 
   7   2.0000      -0.628728       -17.1086 
   8   2.0000      -0.485475       -13.2104 
   9   2.0000      -0.464499       -12.6396 
  10   2.0000      -0.457691       -12.4544 
  11   2.0000      -0.408126       -11.1057 
  12   2.0000      -0.391335       -10.6488 
  13   2.0000      -0.370925       -10.0934 
  14   2.0000      -0.308252        -8.3880 
  15   2.0000      -0.262350        -7.1389 
  16   0.0000       0.006607         0.1798 
  17   0.0000       0.046642         1.2692 
  18   0.0000       0.079083         2.1520 
  19   0.0000       0.119641         3.2556 
  20   0.0000       0.139109         3.7854 
  21   0.0000       0.218394         5.9428 
  22   0.0000       0.263409         7.1677 
  23   0.0000       0.310430         8.4472 
  24   0.0000       0.447520        12.1776 
  25   0.0000       0.448430        12.2024 
  26   0.0000       0.501680        13.6514 
  27   0.0000       0.513017        13.9599 
  28   0.0000       0.531365        14.4592 
  29   0.0000       0.601328        16.3630 
  30   0.0000       0.622511        16.9394 
  31   0.0000       0.645051        17.5527 
  32   0.0000       0.646881        17.6025 
  33   0.0000       0.654198        17.8016 
  34   0.0000       0.670245        18.2383 
  35   0.0000       0.822403        22.3787 
  36   0.0000       0.906039        24.6546 
  37   0.0000       0.942621        25.6500 
  38   0.0000       0.978234        26.6191 
  39   0.0000       1.051801        28.6210 
  40   0.0000       1.122828        30.5537 
  41   0.0000       1.193958        32.4892 
  42   0.0000       1.198246        32.6059 
  43   0.0000       1.274026        34.6680 
  44   0.0000       1.403248        38.1843 
  45   0.0000       1.417529        38.5729 
  46   0.0000       1.503691        40.9175 
  47   0.0000       1.536523        41.8109 
  48   0.0000       1.565958        42.6119 
  49   0.0000       1.660049        45.1722 
  50   0.0000       1.703667        46.3591 
  51   0.0000       1.743297        47.4375 
  52   0.0000       1.765348        48.0376 
  53   0.0000       1.806035        49.1447 
  54   0.0000       1.827412        49.7264 
  55   0.0000       1.972430        53.6726 
  56   0.0000       2.049716        55.7756 
  57   0.0000       2.064785        56.1857 
  58   0.0000       2.148124        58.4534 
  59   0.0000       2.275973        61.9324 
  60   0.0000       2.344598        63.7998 
  61   0.0000       2.430995        66.1508 
  62   0.0000       2.541612        69.1608 
  63   0.0000       2.644488        71.9602 
  64   0.0000       2.673690        72.7548 
  65   0.0000       2.726737        74.1983 
  66   0.0000       2.835411        77.1555 
  67   0.0000       2.836612        77.1881 
  68   0.0000       2.869242        78.0761 
  69   0.0000       2.963082        80.6296 
  70   0.0000       3.022114        82.2359 
  71   0.0000       3.204175        87.1900 
  72   0.0000       3.216147        87.5158 
  73   0.0000       3.564253        96.9883 
  74   0.0000       3.576819        97.3302 
  75   0.0000       3.768118       102.5357 

                    ********************************
                    * MULLIKEN POPULATION ANALYSIS *
                    ********************************

-----------------------
MULLIKEN ATOMIC CHARGES
-----------------------
   0 C :    0.011867
   1 C :    0.091322
   2 H :    0.028637
   3 H :    0.061876
   4 H :    0.062141
   5 O :   -0.250017
   6 O :   -0.197900
   7 H :    0.192074
Sum of atomic charges:    0.0000000

--------------------------------
MULLIKEN REDUCED ORBITAL CHARGES
--------------------------------
  0 C s       :     2.981115  s :     2.981115
      pz      :     1.029042  p :     2.982003
      px      :     0.959692
      py      :     0.993269
      dz2     :     0.005638  d :     0.025015
      dxz     :     0.004737
      dyz     :     0.003274
      dx2y2   :     0.008315
      dxy     :     0.003050
  1 C s       :     3.085821  s :     3.085821
      pz      :     0.821738  p :     2.692854
      px      :     0.986664
      py      :     0.884452
      dz2     :     0.008035  d :     0.130003
      dxz     :     0.011122
      dyz     :     0.025107
      dx2y2   :     0.033963
      dxy     :     0.051775
  2 H s       :     0.948878  s :     0.948878
      pz      :     0.004664  p :     0.022485
      px      :     0.003827
      py      :     0.013994
  3 H s       :     0.914848  s :     0.914848
      pz      :     0.010194  p :     0.023276
      px      :     0.006226
      py      :     0.006856
  4 H s       :     0.914635  s :     0.914635
      pz      :     0.011744  p :     0.023223
      px      :     0.006032
      py      :     0.005448
  5 O s       :     3.748577  s :     3.748577
      pz      :     1.388779  p :     4.483857
      px      :     1.754929
      py      :     1.340149
      dz2     :     0.002063  d :     0.017583
      dxz     :     0.000354
      dyz     :     0.005382
      dx2y2   :     0.005708
      dxy     :     0.004076
  6 O s       :     3.651812  s :     3.651812
      pz      :     1.774054  p :     4.534968
      px      :     1.134806
      py      :     1.626107
      dz2     :     0.001754  d :     0.011120
      dxz     :     0.000563
      dyz     :     0.001892
      dx2y2   :     0.002226
      dxy     :     0.004685
  7 H s       :     0.742627  s :     0.742627
      pz      :     0.015522  p :     0.065299
      px      :     0.035301
      py      :     0.014476


                     *******************************
                     * LOEWDIN POPULATION ANALYSIS *
                     *******************************

----------------------
LOEWDIN ATOMIC CHARGES
----------------------
   0 C :   -0.072378
   1 C :    0.085128
   2 H :    0.035890
   3 H :    0.056052
   4 H :    0.056023
   5 O :   -0.207442
   6 O :   -0.054716
   7 H :    0.101442

-------------------------------
LOEWDIN REDUCED ORBITAL CHARGES
-------------------------------
  0 C s       :     2.852647  s :     2.852647
      pz      :     1.070229  p :     3.152581
      px      :     1.020400
      py      :     1.061952
      dz2     :     0.015063  d :     0.067150
      dxz     :     0.012840
      dyz     :     0.007570
      dx2y2   :     0.022595
      dxy     :     0.009081
  1 C s       :     2.857392  s :     2.857392
      pz      :     0.805463  p :     2.774717
      px      :     0.980475
      py      :     0.988780
      dz2     :     0.017596  d :     0.282763
      dxz     :     0.019845
      dyz     :     0.048769
      dx2y2   :     0.078073
      dxy     :     0.118479
  2 H s       :     0.899599  s :     0.899599
      pz      :     0.012185  p :     0.064511
      px      :     0.011680
      py      :     0.040645
  3 H s       :     0.880189  s :     0.880189
      pz      :     0.028125  p :     0.063758
      px      :     0.017835
      py      :     0.017799
  4 H s       :     0.880242  s :     0.880242
      pz      :     0.033103  p :     0.063735
      px      :     0.017280
      py      :     0.013353
  5 O s       :     3.558599  s :     3.558599
      pz      :     1.390106  p :     4.618674
      px      :     1.756992
      py      :     1.471576
      dz2     :     0.004250  d :     0.030168
      dxz     :     0.000436
      dyz     :     0.006908
      dx2y2   :     0.011574
      dxy     :     0.007000
  6 O s       :     3.402890  s :     3.402890
      pz      :     1.730072  p :     4.627910
      px      :     1.240341
      py      :     1.657496
      dz2     :     0.003820  d :     0.023916
      dxz     :     0.001328
      dyz     :     0.002134
      dx2y2   :     0.006005
      dxy     :     0.010630
  7 H s       :     0.723910  s :     0.723910
      pz      :     0.044112  p :     0.174648
      px      :     0.088729
      py      :     0.041808


                      *****************************
                      * MAYER POPULATION ANALYSIS *
                      *****************************

  NA   - Mulliken gross atomic population
  ZA   - Total nuclear charge
  QA   - Mulliken gross atomic charge
  VA   - Mayer's total valence
  BVA  - Mayer's bonded valence
  FA   - Mayer's free valence

  ATOM       NA         ZA         QA         VA         BVA        FA
  0 C      5.9881     6.0000     0.0119     3.8793     3.8793    -0.0000
  1 C      5.9087     6.0000     0.0913     4.4314     4.4314     0.0000
  2 H      0.9714     1.0000     0.0286     0.9994     0.9994     0.0000
  3 H      0.9381     1.0000     0.0619     1.0004     1.0004    -0.0000
  4 H      0.9379     1.0000     0.0621     1.0001     1.0001     0.0000
  5 O      8.2500     8.0000    -0.2500     2.2004     2.2004     0.0000
  6 O      8.1979     8.0000    -0.1979     2.2170     2.2170     0.0000
  7 H      0.8079     1.0000     0.1921     1.0180     1.0180     0.0000

  Mayer bond orders larger than 0.100000
B(  0-C ,  1-C ) :   1.0338 B(  0-C ,  2-H ) :   0.9516 B(  0-C ,  3-H ) :   0.9551 
B(  0-C ,  4-H ) :   0.9554 B(  1-C ,  5-O ) :   2.0726 B(  1-C ,  6-O ) :   1.2184 
B(  6-O ,  7-H ) :   0.9334 

-------
TIMINGS
-------

Total SCF time: 0 days 0 hours 0 min 5 sec 

Total time                  ....       5.701 sec
Sum of individual times     ....       5.518 sec  ( 96.8%)

Fock matrix formation       ....       5.149 sec  ( 90.3%)
  XC integration            ....       0.820 sec  ( 15.9% of F)
    Basis function eval.    ....       0.250 sec  ( 30.5% of XC)
    Density eval.           ....       0.172 sec  ( 21.0% of XC)
    XC-Functional eval.     ....       0.082 sec  ( 10.0% of XC)
    XC-Potential eval.      ....       0.224 sec  ( 27.3% of XC)
Diagonalization             ....       0.004 sec  (  0.1%)
Density matrix formation    ....       0.001 sec  (  0.0%)
Population analysis         ....       0.005 sec  (  0.1%)
Initial guess               ....       0.114 sec  (  2.0%)
Orbital Transformation      ....       0.000 sec  (  0.0%)
Orbital Orthonormalization  ....       0.000 sec  (  0.0%)
DIIS solution               ....       0.003 sec  (  0.1%)
SOSCF solution              ....       0.002 sec  (  0.0%)
Grid generation             ....       0.240 sec  (  4.2%)

-------------------------   --------------------
FINAL SINGLE POINT ENERGY      -228.788081256735
-------------------------   --------------------

------------------------------------------------------------------------------
                         ORCA SCF GRADIENT CALCULATION
------------------------------------------------------------------------------

Gradient of the Kohn-Sham DFT energy:
Kohn-Sham wavefunction type      ... RKS
Hartree-Fock exchange scaling    ...    0.200
Number of operators              ...    1
Number of atoms                  ...    8
Basis set dimensions             ...   76
Integral neglect threshold       ... 1.0e-13
Integral primitive cutoff        ... 1.0e-14

Nuclear repulsion gradient       ... done
One Electron Gradient            ... done
Pre-screening matrix             ... done
Starting the two electron gradient:
Two electron gradient done
Exchange-correlation gradient    ... done

------------------
CARTESIAN GRADIENT
------------------

   1   C   :    0.002931444    0.028796245    0.003975797
   2   C   :   -0.036846471   -0.054505030   -0.006750969
   3   H   :    0.003450458   -0.005946468   -0.000838177
   4   H   :   -0.004141934    0.001051636   -0.006401656
   5   H   :   -0.003874911   -0.000759763    0.006349012
   6   O   :    0.004051350    0.014910630    0.001919861
   7   O   :    0.027189688    0.036458232    0.004473559
   8   H   :    0.007240375   -0.020005482   -0.002727427

Difference to translation invariance:
           :    0.0000000000   -0.0000000000    0.0000000000

Norm of the cartesian gradient     ...    0.0904531695
RMS gradient                       ...    0.0184636759
MAX gradient                       ...    0.0545050303

-------
TIMINGS
-------

Total SCF gradient time            ...        1.841 sec

One electron gradient       ....       0.017 sec  (  0.9%)
Prescreening matrices       ....       0.014 sec  (  0.8%)
Two electron gradient       ....       0.810 sec  ( 44.0%)
XC gradient                 ....       0.903 sec  ( 49.0%)
------------------------------------------------------------------------------
                         ORCA GEOMETRY RELAXATION STEP
------------------------------------------------------------------------------

Reading the OPT-File                    .... done
Getting information on internals        .... done
Copying old internal coords+grads       .... done
Making the new internal coordinates     .... (new redundants).... done
Validating the new internal coordinates .... (new redundants).... done
Calculating the B-matrix                .... done
Calculating the G,G- and P matrices     .... done
Transforming gradient to internals      .... done
Projecting the internal gradient        .... done
Number of atoms                         ....   8
Number of internal coordinates          ....  25
Current Energy                          ....  -228.788081257 Eh
Current gradient norm                   ....     0.090453170 Eh/bohr
Maximum allowed component of the step   ....  0.300
Current trust radius                    ....  0.300
Evaluating the initial hessian          ....  (Almloef) done
Projecting the Hessian                  .... done
Forming the augmented Hessian           .... done
Diagonalizing the augmented Hessian     .... done
Last element of RFO vector              ....  0.988289874
Lowest eigenvalues of augmented Hessian:
 -0.009449292  0.013360133  0.017806618  0.031072813  0.134893395
Length of the computed step             ....  0.154396084
The final length of the internal step   ....  0.154396084
Converting the step to cartesian space:
 Initial RMS(Int)=    0.0308792167
Transforming coordinates:
 Iter   0:  RMS(Cart)=    0.0394018477 RMS(Int)=    1.2569491919
 Iter   1:  RMS(Cart)=    0.0011627953 RMS(Int)=    0.0009022506
 Iter   2:  RMS(Cart)=    0.0000511138 RMS(Int)=    0.0000374328
 Iter   3:  RMS(Cart)=    0.0000029139 RMS(Int)=    0.0000023574
 Iter   4:  RMS(Cart)=    0.0000001349 RMS(Int)=    0.0000000986
 Iter   5:  RMS(Cart)=    0.0000000075 RMS(Int)=    0.0000000062
done
Storing new coordinates                 .... done

                                .--------------------.
          ----------------------|Geometry convergence|-------------------------
          Item                value                   Tolerance       Converged
          ---------------------------------------------------------------------
          RMS gradient        0.0126113234            0.0000080000      NO
          MAX gradient        0.0390935776            0.0000300000      NO
          RMS step            0.0308792167            0.0001000000      NO
          MAX step            0.1027126688            0.0002000000      NO
          ........................................................
          Max(Bonds)      0.0112      Max(Angles)    5.89
          Max(Dihed)        0.84      Max(Improp)    0.00
          ---------------------------------------------------------------------

The optimization has not yet converged - more geometry cycles are needed


    ---------------------------------------------------------------------------
                         Redundant Internal Coordinates
                            (Angstroem and degrees)

        Definition                    Value    dE/dq     Step     New-Value
    ----------------------------------------------------------------------------
     1. B(C   1,C   0)                1.4948 -0.005184  0.0063    1.5011   
     2. B(H   2,C   0)                1.1104  0.005792 -0.0089    1.1015   
     3. B(H   3,C   0)                1.1102  0.007254 -0.0112    1.0990   
     4. B(H   4,C   0)                1.1102  0.007019 -0.0108    1.0994   
     5. B(O   5,C   1)                1.2217  0.015564 -0.0079    1.2138   
     6. B(O   6,C   1)                1.3498  0.013771 -0.0111    1.3388   
     7. B(H   7,O   6)                0.9678  0.001520 -0.0016    0.9662   
     8. A(C   1,C   0,H   2)          110.33 -0.007640    1.56    111.89   
     9. A(C   1,C   0,H   4)          109.69  0.003375   -0.70    108.99   
    10. A(H   2,C   0,H   4)          108.92  0.000372    0.23    109.15   
    11. A(C   1,C   0,H   3)          109.69  0.003379   -0.70    108.99   
    12. A(H   3,C   0,H   4)          109.28  0.000138   -0.62    108.66   
    13. A(H   2,C   0,H   3)          108.92  0.000386    0.22    109.14   
    14. A(C   0,C   1,O   5)          119.87 -0.016457    2.26    122.13   
    15. A(O   5,C   1,O   6)          120.14 -0.017701    2.26    122.40   
    16. A(C   0,C   1,O   6)          120.00  0.034158   -4.52    115.48   
    17. A(C   1,O   6,H   7)          121.13  0.039094   -5.89    115.24   
    18. D(O   5,C   1,C   0,H   2)    180.00 -0.000003    0.02    180.02   
    19. D(O   6,C   1,C   0,H   2)     -0.00  0.000012   -0.01     -0.01   
    20. D(O   5,C   1,C   0,H   3)     60.02  0.002166   -0.79     59.22   
    21. D(O   6,C   1,C   0,H   3)   -119.98  0.002181   -0.82   -120.81   
    22. D(O   6,C   1,C   0,H   4)    119.98 -0.002177    0.81    120.79   
    23. D(O   5,C   1,C   0,H   4)    -60.02 -0.002192    0.84    -59.18   
    24. D(H   7,O   6,C   1,C   0)    180.00  0.000017   -0.02    179.98   
    25. D(H   7,O   6,C   1,O   5)     -0.00  0.000032   -0.05     -0.05   
    ----------------------------------------------------------------------------

         *************************************************************
         *                GEOMETRY OPTIMIZATION CYCLE   2            *
         *************************************************************
---------------------------------
CARTESIAN COORDINATES (ANGSTROEM)
---------------------------------
  C     -8.218379    1.740101   -0.006400
  C     -6.792457    2.207022    0.037725
  H     -8.289425    0.650447   -0.151066
  H     -8.735305    2.247804   -0.832741
  H     -8.712874    2.011575    0.937195
  O     -6.500196    3.375210    0.190382
  O     -5.868084    1.248709   -0.101866
  H     -4.951500    1.553072   -0.073228

----------------------------
CARTESIAN COORDINATES (A.U.)
----------------------------
  NO LB      ZA    FRAG     MASS         X           Y           Z
   0 C     6.0000    0    12.011  -15.530486    3.288315   -0.012095
   1 C     6.0000    0    12.011  -12.835884    4.170667    0.071289
   2 H     1.0000    0     1.008  -15.664744    1.229166   -0.285474
   3 H     1.0000    0     1.008  -16.507335    4.247734   -1.573652
   4 H     1.0000    0     1.008  -16.464945    3.801326    1.771041
   5 O     8.0000    0    15.999  -12.283590    6.378222    0.359769
   6 O     8.0000    0    15.999  -11.089071    2.359717   -0.192499
   7 H     1.0000    0     1.008   -9.356979    2.934881   -0.138380

--------------------------------
INTERNAL COORDINATES (ANGSTROEM)
--------------------------------
 C      0   0   0     0.000000000000     0.00000000     0.00000000
 C      1   0   0     1.501071735139     0.00000000     0.00000000
 H      1   2   0     1.101509269027   111.89091929     0.00000000
 H      1   2   3     1.099005385795   108.97856121   239.21025651
 H      1   2   3     1.099360766372   108.98011365   120.79746735
 O      2   1   3     1.213830009905   122.12585407   180.01831716
 O      2   1   3     1.338774255019   115.47838588     0.00000000
 H      7   2   1     0.966221054670   115.24037283   179.98123523

---------------------------
INTERNAL COORDINATES (A.U.)
---------------------------
 C      0   0   0     0.000000000000     0.00000000     0.00000000
 C      1   0   0     2.836614486783     0.00000000     0.00000000
 H      1   2   0     2.081550852437   111.89091929     0.00000000
 H      1   2   3     2.076819198857   108.97856121   239.21025651
 H      1   2   3     2.077490770820   108.98011365   120.79746735
 O      2   1   3     2.293806291855   122.12585407   180.01831716
 O      2   1   3     2.529916697131   115.47838588     0.00000000
 H      7   2   1     1.825893178155   115.24037283   179.98123523


Diagonalization of the overlap matrix:
Smallest eigenvalue                        ... 3.562e-03
Time for diagonalization                   ...    0.001 sec
Threshold for overlap eigenvalues          ... 1.000e-08
Number of eigenvalues below threshold      ... 0
Time for construction of square roots      ...    0.001 sec
Total time needed                          ...    0.002 sec

-------------------
DFT GRID GENERATION
-------------------

General Integration Accuracy     IntAcc      ...  4.340
Radial Grid Type                 RadialGrid  ... Gauss-Chebyshev
Angular Grid (max. acc.)         AngularGrid ... Lebedev-110
Angular grid pruning method      GridPruning ... 3 (G Style)
Weight generation scheme         WeightScheme... Becke
Basis function cutoff            BFCut       ...    3.0000e-14
Integration weight cutoff        WCut        ...    1.0000e-14
Grids for H and He will be reduced by one unit

# of grid points (after initial pruning)     ...   9920 (   0.0 sec)
# of grid points (after weights+screening)   ...   9564 (   0.0 sec)
nearest neighbour list constructed           ...    0.0 sec
Grid point re-assignment to atoms done       ...    0.0 sec
Grid point division into batches done        ...    0.0 sec
Reduced shell lists constructed in    0.0 sec

Total number of grid points                  ...     9564
Total number of batches                      ...      155
Average number of points per batch           ...       61
Average number of grid points per atom       ...     1196
Average number of shells per batch           ...    30.78 (85.51%)
Average number of basis functions per batch  ...    65.72 (86.47%)
Average number of large shells per batch     ...    26.74 (86.86%)
Average number of large basis fcns per batch ...    55.92 (85.09%)
Maximum spatial batch extension              ...  17.24, 25.60, 25.60 au
Average spatial batch extension              ...   4.12,  4.31,  4.36 au

Time for grid setup =    0.030 sec

--------------
SCF ITERATIONS
--------------
ITER       Energy         Delta-E        Max-DP      RMS-DP      [F,P]     Damp
               ***  Starting incremental Fock matrix formation  ***
  0   -228.7935045790   0.000000000000 0.00427514  0.00029757  0.0156124 0.7000
                      *** Initiating the SOSCF procedure ***
                      *** Re-Reading the Fockian *** 
                      *** Removing any level shift *** 
ITER      Energy       Delta-E        Grad      Rot      Max-DP    RMS-DP
  1   -228.79395432  -0.0004497376  0.001843  0.001843  0.013007  0.000885
               *** Restarting incremental Fock matrix formation ***
  2   -228.79505885  -0.0011045335  0.001716  0.004750  0.007000  0.000347
  3   -228.79500326   0.0000555919  0.004258  0.004331  0.005220  0.000182
  4   -228.79509812  -0.0000948572  0.000235  0.000458  0.001283  0.000053
  5   -228.79509812  -0.0000000090  0.000275  0.000253  0.000610  0.000028
  6   -228.79509973  -0.0000016049  0.000032  0.000040  0.000107  0.000004
  7   -228.79509972   0.0000000071  0.000050  0.000026  0.000068  0.000003
  8   -228.79509974  -0.0000000193  0.000004  0.000007  0.000013  0.000001
  9   -228.79509974  -0.0000000001  0.000003  0.000002  0.000007  0.000000
 10   -228.79509974  -0.0000000002  0.000001  0.000001  0.000001  0.000000
 11   -228.79509974  -0.0000000000  0.000000  0.000000  0.000001  0.000000
                 **** Energy Check signals convergence ****
              ***Rediagonalizing the Fockian in SOSCF/NRSCF***

               *****************************************************
               *                     SUCCESS                       *
               *           SCF CONVERGED AFTER  12 CYCLES          *
               *****************************************************

Setting up the final grid:

General Integration Accuracy     IntAcc      ...  4.670
Radial Grid Type                 RadialGrid  ... Gauss-Chebyshev
Angular Grid (max. acc.)         AngularGrid ... Lebedev-302
Angular grid pruning method      GridPruning ... 3 (G Style)
Weight generation scheme         WeightScheme... Becke
Basis function cutoff            BFCut       ...    3.0000e-14
Integration weight cutoff        WCut        ...    1.0000e-14
Grids for H and He will be reduced by one unit

# of grid points (after initial pruning)     ...  38424 (   0.0 sec)
# of grid points (after weights+screening)   ...  36704 (   0.0 sec)
nearest neighbour list constructed           ...    0.0 sec
Grid point re-assignment to atoms done       ...    0.0 sec
Grid point division into batches done        ...    0.1 sec
Reduced shell lists constructed in    0.2 sec

Total number of grid points                  ...    36704
Total number of batches                      ...      578
Average number of points per batch           ...       63
Average number of grid points per atom       ...     4588
Average number of shells per batch           ...    28.64 (79.57%)
Average number of basis functions per batch  ...    60.82 (80.03%)
Average number of large shells per batch     ...    24.26 (84.69%)
Average number of large basis fcns per batch ...    50.24 (82.61%)
Maximum spatial batch extension              ...  19.17, 18.89, 19.37 au
Average spatial batch extension              ...   2.84,  2.93,  2.95 au

Final grid set up in    0.2 sec
Final integration                            ... done (   0.1 sec)
Change in XC energy                          ...     0.000041881
Integrated number of electrons               ...    31.999985213
Previous integrated no of electrons          ...    32.001883028
Total Energy       :         -228.79505786 Eh           -6225.83004 eV
  Last Energy change         ...   -6.2528e-13  Tolerance :   1.0000e-10
  Last MAX-Density change    ...    1.4135e-08  Tolerance :   1.0000e-05
             **** THE GBW FILE WAS UPDATED (AcOH.gbw) ****
             **** DENSITY FILE WAS UPDATED (AcOH.scfp) ****
             **** ENERGY FILE WAS UPDATED (AcOH.en.tmp) ****
             **** THE GBW FILE WAS UPDATED (AcOH.gbw) ****
             **** DENSITY FILE WAS UPDATED (AcOH.scfp) ****
Total SCF time: 0 days 0 hours 0 min 5 sec 

-------------------------   --------------------
FINAL SINGLE POINT ENERGY      -228.795057861126
-------------------------   --------------------

------------------------------------------------------------------------------
                         ORCA SCF GRADIENT CALCULATION
------------------------------------------------------------------------------

Gradient of the Kohn-Sham DFT energy:
Kohn-Sham wavefunction type      ... RKS
Hartree-Fock exchange scaling    ...    0.200
Number of operators              ...    1
Number of atoms                  ...    8
Basis set dimensions             ...   76
Integral neglect threshold       ... 1.0e-13
Integral primitive cutoff        ... 1.0e-14

Nuclear repulsion gradient       ... done
One Electron Gradient            ... done
Pre-screening matrix             ... done
Starting the two electron gradient:
Two electron gradient done
Exchange-correlation gradient    ... done

------------------
CARTESIAN GRADIENT
------------------

   1   C   :   -0.000747916    0.015489035    0.002097902
   2   C   :   -0.012782382   -0.030652398   -0.003959372
   3   H   :    0.000687369   -0.001531204   -0.000225989
   4   H   :    0.000427564   -0.001715445   -0.000638172
   5   H   :    0.000429348   -0.001836771    0.000143128
   6   O   :    0.000133485    0.008474330    0.001149740
   7   O   :    0.010823332    0.025143845    0.003209592
   8   H   :    0.001029200   -0.013371393   -0.001776828

Difference to translation invariance:
           :   -0.0000000000   -0.0000000000   -0.0000000000

Norm of the cartesian gradient     ...    0.0488805606
RMS gradient                       ...    0.0099777026
MAX gradient                       ...    0.0306523983

-------
TIMINGS
-------

Total SCF gradient time            ...        1.909 sec

One electron gradient       ....       0.012 sec  (  0.6%)
Prescreening matrices       ....       0.017 sec  (  0.9%)
Two electron gradient       ....       0.819 sec  ( 42.9%)
XC gradient                 ....       0.967 sec  ( 50.7%)
------------------------------------------------------------------------------
                         ORCA GEOMETRY RELAXATION STEP
------------------------------------------------------------------------------

Reading the OPT-File                    .... done
Getting information on internals        .... done
Copying old internal coords+grads       .... done
Making the new internal coordinates     .... (new redundants).... done
Validating the new internal coordinates .... (new redundants).... done
Calculating the B-matrix                .... done
Calculating the G,G- and P matrices     .... done
Transforming gradient to internals      .... done
Projecting the internal gradient        .... done
Number of atoms                         ....   8
Number of internal coordinates          ....  25
Current Energy                          ....  -228.795057861 Eh
Current gradient norm                   ....     0.048880561 Eh/bohr
Maximum allowed component of the step   ....  0.300
Current trust radius                    ....  0.300
Updating the Hessian (BFGS)             .... done
Forming the augmented Hessian           .... done
Diagonalizing the augmented Hessian     .... done
Last element of RFO vector              ....  0.986944658
Lowest eigenvalues of augmented Hessian:
 -0.004966444  0.013360132  0.017806806  0.031072792  0.129895932
Length of the computed step             ....  0.163190251
The final length of the internal step   ....  0.163190251
Converting the step to cartesian space:
 Initial RMS(Int)=    0.0326380502
Transforming coordinates:
 Iter   0:  RMS(Cart)=    0.0384871539 RMS(Int)=    1.2569779532
 Iter   1:  RMS(Cart)=    0.0016486008 RMS(Int)=    0.0012922414
 Iter   2:  RMS(Cart)=    0.0000706572 RMS(Int)=    0.0000646947
 Iter   3:  RMS(Cart)=    0.0000076778 RMS(Int)=    0.0000064556
 Iter   4:  RMS(Cart)=    0.0000003713 RMS(Int)=    0.0000003545
 Iter   5:  RMS(Cart)=    0.0000000405 RMS(Int)=    0.0000000336
done
Storing new coordinates                 .... done

                                .--------------------.
          ----------------------|Geometry convergence|-------------------------
          Item                value                   Tolerance       Converged
          ---------------------------------------------------------------------
          Energy change      -0.0069766044            0.0000002000      NO
          RMS gradient        0.0062697516            0.0000080000      NO
          MAX gradient        0.0239301747            0.0000300000      NO
          RMS step            0.0326380502            0.0001000000      NO
          MAX step            0.1285284362            0.0002000000      NO
          ........................................................
          Max(Bonds)      0.0099      Max(Angles)    7.36
          Max(Dihed)        0.97      Max(Improp)    0.00
          ---------------------------------------------------------------------

The optimization has not yet converged - more geometry cycles are needed


    ---------------------------------------------------------------------------
                         Redundant Internal Coordinates
                            (Angstroem and degrees)

        Definition                    Value    dE/dq     Step     New-Value
    ----------------------------------------------------------------------------
     1. B(C   1,C   0)                1.5011 -0.004028  0.0099    1.5109   
     2. B(H   2,C   0)                1.1015  0.001508 -0.0053    1.0962   
     3. B(H   3,C   0)                1.0990 -0.000520  0.0004    1.0994   
     4. B(H   4,C   0)                1.0994 -0.000524  0.0004    1.0998   
     5. B(O   5,C   1)                1.2138  0.008335 -0.0088    1.2051   
     6. B(O   6,C   1)                1.3388 -0.000408 -0.0006    1.3381   
     7. B(H   7,O   6)                0.9662 -0.003280  0.0061    0.9724   
     8. A(C   1,C   0,H   2)          111.89 -0.002074    1.08    112.97   
     9. A(C   1,C   0,H   4)          108.98  0.000991   -0.52    108.46   
    10. A(H   2,C   0,H   4)          109.15 -0.000409    0.47    109.61   
    11. A(C   1,C   0,H   3)          108.98  0.000979   -0.51    108.47   
    12. A(H   3,C   0,H   4)          108.65  0.001009   -1.02    107.62   
    13. A(H   2,C   0,H   3)          109.14 -0.000407    0.47    109.61   
    14. A(C   0,C   1,O   5)          122.13 -0.009152    2.53    124.66   
    15. A(O   5,C   1,O   6)          122.40 -0.004695    1.39    123.79   
    16. A(C   0,C   1,O   6)          115.48  0.013847   -3.92    111.55   
    17. A(C   1,O   6,H   7)          115.24  0.023930   -7.36    107.88   
    18. D(O   5,C   1,C   0,H   2)   -179.98  0.000002   -0.02   -180.00   
    19. D(O   6,C   1,C   0,H   2)     -0.01 -0.000009    0.04      0.03   
    20. D(O   5,C   1,C   0,H   3)     59.23  0.001181   -0.95     58.28   
    21. D(O   6,C   1,C   0,H   3)   -120.80  0.001169   -0.89   -121.69   
    22. D(O   6,C   1,C   0,H   4)    120.78 -0.001183    0.97    121.76   
    23. D(O   5,C   1,C   0,H   4)    -59.18 -0.001171    0.91    -58.28   
    24. D(H   7,O   6,C   1,C   0)    179.98  0.000016   -0.06    179.92   
    25. D(H   7,O   6,C   1,O   5)     -0.05  0.000003    0.01     -0.04   
    ----------------------------------------------------------------------------

         *************************************************************
         *                GEOMETRY OPTIMIZATION CYCLE   3            *
         *************************************************************
---------------------------------
CARTESIAN COORDINATES (ANGSTROEM)
---------------------------------
  C     -8.206101    1.727064   -0.008260
  C     -6.779515    2.222449    0.040148
  H     -8.277735    0.642657   -0.152107
  H     -8.726038    2.243085   -0.828037
  H     -8.704372    2.008569    0.930896
  O     -6.458810    3.374371    0.189849
  O     -5.905642    1.219543   -0.105225
  H     -5.010006    1.596201   -0.067265

----------------------------
CARTESIAN COORDINATES (A.U.)
----------------------------
  NO LB      ZA    FRAG     MASS         X           Y           Z
   0 C     6.0000    0    12.011  -15.507284    3.263679   -0.015609
   1 C     6.0000    0    12.011  -12.811427    4.199819    0.075869
   2 H     1.0000    0     1.008  -15.642653    1.214446   -0.287441
   3 H     1.0000    0     1.008  -16.489821    4.238816   -1.564763
   4 H     1.0000    0     1.008  -16.448879    3.795646    1.759139
   5 O     8.0000    0    15.999  -12.205383    6.376638    0.358763
   6 O     8.0000    0    15.999  -11.160047    2.304603   -0.198847
   7 H     1.0000    0     1.008   -9.467540    3.016382   -0.127112

--------------------------------
INTERNAL COORDINATES (ANGSTROEM)
--------------------------------
 C      0   0   0     0.000000000000     0.00000000     0.00000000
 C      1   0   0     1.510926146394     0.00000000     0.00000000
 H      1   2   0     1.096249445796   112.96864385     0.00000000
 H      1   2   3     1.099383956075   108.45338894   238.28931805
 H      1   2   3     1.099787328785   108.45075466   121.71594246
 O      2   1   3     1.205067448713   124.65706269   179.99624903
 O      2   1   3     1.338135257995   111.55462767     0.03037947
 H      7   2   1     0.972355542056   107.87623549   179.92477152

---------------------------
INTERNAL COORDINATES (A.U.)
---------------------------
 C      0   0   0     0.000000000000     0.00000000     0.00000000
 C      1   0   0     2.855236625266     0.00000000     0.00000000
 H      1   2   0     2.071611227018   112.96864385     0.00000000
 H      1   2   3     2.077534593008   108.45338894   238.28931805
 H      1   2   3     2.078296856960   108.45075466   121.71594246
 O      2   1   3     2.277247450970   124.65706269   179.99624903
 O      2   1   3     2.528709167755   111.55462767     0.03037947
 H      7   2   1     1.837485679286   107.87623549   179.92477152


Diagonalization of the overlap matrix:
Smallest eigenvalue                        ... 3.634e-03
Time for diagonalization                   ...    0.001 sec
Threshold for overlap eigenvalues          ... 1.000e-08
Number of eigenvalues below threshold      ... 0
Time for construction of square roots      ...    0.001 sec
Total time needed                          ...    0.002 sec

-------------------
DFT GRID GENERATION
-------------------

General Integration Accuracy     IntAcc      ...  4.340
Radial Grid Type                 RadialGrid  ... Gauss-Chebyshev
Angular Grid (max. acc.)         AngularGrid ... Lebedev-110
Angular grid pruning method      GridPruning ... 3 (G Style)
Weight generation scheme         WeightScheme... Becke
Basis function cutoff            BFCut       ...    3.0000e-14
Integration weight cutoff        WCut        ...    1.0000e-14
Grids for H and He will be reduced by one unit

# of grid points (after initial pruning)     ...   9920 (   0.0 sec)
# of grid points (after weights+screening)   ...   9565 (   0.0 sec)
nearest neighbour list constructed           ...    0.0 sec
Grid point re-assignment to atoms done       ...    0.0 sec
Grid point division into batches done        ...    0.0 sec
Reduced shell lists constructed in    0.0 sec

Total number of grid points                  ...     9565
Total number of batches                      ...      155
Average number of points per batch           ...       61
Average number of grid points per atom       ...     1196
Average number of shells per batch           ...    30.84 (85.67%)
Average number of basis functions per batch  ...    65.94 (86.77%)
Average number of large shells per batch     ...    26.85 (87.07%)
Average number of large basis fcns per batch ...    56.16 (85.17%)
Maximum spatial batch extension              ...  17.15, 25.60, 25.60 au
Average spatial batch extension              ...   4.16,  4.31,  4.38 au

Time for grid setup =    0.029 sec

--------------
SCF ITERATIONS
--------------
ITER       Energy         Delta-E        Max-DP      RMS-DP      [F,P]     Damp
               ***  Starting incremental Fock matrix formation  ***
  0   -228.7956829699   0.000000000000 0.00551132  0.00034424  0.0196818 0.7000
                      *** Initiating the SOSCF procedure ***
                      *** Re-Reading the Fockian *** 
                      *** Removing any level shift *** 
ITER      Energy       Delta-E        Grad      Rot      Max-DP    RMS-DP
  1   -228.79625918  -0.0005762093  0.001983  0.001983  0.015756  0.001020
               *** Restarting incremental Fock matrix formation ***
  2   -228.79767308  -0.0014139035  0.002111  0.006369  0.008251  0.000383
  3   -228.79756789   0.0001051968  0.005509  0.005256  0.006187  0.000225
  4   -228.79772643  -0.0001585455  0.000216  0.000429  0.001099  0.000031
  5   -228.79772627   0.0000001578  0.000281  0.000256  0.000552  0.000016
  6   -228.79772697  -0.0000006942  0.000047  0.000039  0.000106  0.000005
  7   -228.79772696   0.0000000046  0.000051  0.000022  0.000054  0.000003
  8   -228.79772699  -0.0000000221  0.000002  0.000003  0.000007  0.000000
  9   -228.79772699  -0.0000000000  0.000002  0.000002  0.000004  0.000000
 10   -228.79772699  -0.0000000000  0.000000  0.000000  0.000001  0.000000
                  ***Gradient check signals convergence***
              ***Rediagonalizing the Fockian in SOSCF/NRSCF***

               *****************************************************
               *                     SUCCESS                       *
               *           SCF CONVERGED AFTER  11 CYCLES          *
               *****************************************************

Setting up the final grid:

General Integration Accuracy     IntAcc      ...  4.670
Radial Grid Type                 RadialGrid  ... Gauss-Chebyshev
Angular Grid (max. acc.)         AngularGrid ... Lebedev-302
Angular grid pruning method      GridPruning ... 3 (G Style)
Weight generation scheme         WeightScheme... Becke
Basis function cutoff            BFCut       ...    3.0000e-14
Integration weight cutoff        WCut        ...    1.0000e-14
Grids for H and He will be reduced by one unit

# of grid points (after initial pruning)     ...  38424 (   0.0 sec)
# of grid points (after weights+screening)   ...  36699 (   0.0 sec)
nearest neighbour list constructed           ...    0.0 sec
Grid point re-assignment to atoms done       ...    0.0 sec
Grid point division into batches done        ...    0.1 sec
Reduced shell lists constructed in    0.2 sec

Total number of grid points                  ...    36699
Total number of batches                      ...      578
Average number of points per batch           ...       63
Average number of grid points per atom       ...     4587
Average number of shells per batch           ...    28.66 (79.61%)
Average number of basis functions per batch  ...    60.86 (80.08%)
Average number of large shells per batch     ...    24.35 (84.98%)
Average number of large basis fcns per batch ...    50.49 (82.95%)
Maximum spatial batch extension              ...  19.07, 18.08, 18.45 au
Average spatial batch extension              ...   2.86,  2.93,  2.97 au

Final grid set up in    0.2 sec
Final integration                            ... done (   0.2 sec)
Change in XC energy                          ...     0.000202240
Integrated number of electrons               ...    31.999988644
Previous integrated no of electrons          ...    32.002509175
Total Energy       :         -228.79752475 Eh           -6225.89717 eV
  Last Energy change         ...   -3.4106e-13  Tolerance :   1.0000e-10
  Last MAX-Density change    ...    4.7115e-07  Tolerance :   1.0000e-05
             **** THE GBW FILE WAS UPDATED (AcOH.gbw) ****
             **** DENSITY FILE WAS UPDATED (AcOH.scfp) ****
             **** ENERGY FILE WAS UPDATED (AcOH.en.tmp) ****
             **** THE GBW FILE WAS UPDATED (AcOH.gbw) ****
             **** DENSITY FILE WAS UPDATED (AcOH.scfp) ****
Total SCF time: 0 days 0 hours 0 min 4 sec 

-------------------------   --------------------
FINAL SINGLE POINT ENERGY      -228.797524745901
-------------------------   --------------------

------------------------------------------------------------------------------
                         ORCA SCF GRADIENT CALCULATION
------------------------------------------------------------------------------

Gradient of the Kohn-Sham DFT energy:
Kohn-Sham wavefunction type      ... RKS
Hartree-Fock exchange scaling    ...    0.200
Number of operators              ...    1
Number of atoms                  ...    8
Basis set dimensions             ...   76
Integral neglect threshold       ... 1.0e-13
Integral primitive cutoff        ... 1.0e-14

Nuclear repulsion gradient       ... done
One Electron Gradient            ... done
Pre-screening matrix             ... done
Starting the two electron gradient:
Two electron gradient done
Exchange-correlation gradient    ... done

------------------
CARTESIAN GRADIENT
------------------

   1   C   :    0.000744928   -0.001069574   -0.000218307
   2   C   :    0.008956265   -0.002372159   -0.000312594
   3   H   :   -0.001175191    0.000722296    0.000095727
   4   H   :    0.001152909   -0.000782690    0.000031432
   5   H   :    0.001147384   -0.000749624   -0.000244709
   6   O   :   -0.002853807   -0.000056476   -0.000012836
   7   O   :   -0.007308748    0.006060406    0.000891342
   8   H   :   -0.000663739   -0.001752178   -0.000230055

Difference to translation invariance:
           :    0.0000000000    0.0000000000   -0.0000000000

Norm of the cartesian gradient     ...    0.0140046824
RMS gradient                       ...    0.0028586938
MAX gradient                       ...    0.0089562647

-------
TIMINGS
-------

Total SCF gradient time            ...        2.074 sec

One electron gradient       ....       0.023 sec  (  1.1%)
Prescreening matrices       ....       0.020 sec  (  1.0%)
Two electron gradient       ....       0.998 sec  ( 48.1%)
XC gradient                 ....       0.930 sec  ( 44.8%)
------------------------------------------------------------------------------
                         ORCA GEOMETRY RELAXATION STEP
------------------------------------------------------------------------------

Reading the OPT-File                    .... done
Getting information on internals        .... done
Copying old internal coords+grads       .... done
Making the new internal coordinates     .... (new redundants).... done
Validating the new internal coordinates .... (new redundants).... done
Calculating the B-matrix                .... done
Calculating the G,G- and P matrices     .... done
Transforming gradient to internals      .... done
Projecting the internal gradient        .... done
Number of atoms                         ....   8
Number of internal coordinates          ....  25
Current Energy                          ....  -228.797524746 Eh
Current gradient norm                   ....     0.014004682 Eh/bohr
Maximum allowed component of the step   ....  0.300
Current trust radius                    ....  0.300
Updating the Hessian (BFGS)             .... done
Forming the augmented Hessian           .... done
Diagonalizing the augmented Hessian     .... done
Last element of RFO vector              ....  0.999736119
Lowest eigenvalues of augmented Hessian:
 -0.000256846  0.013360112  0.017807670  0.031072895  0.127068543
Length of the computed step             ....  0.022977616
The final length of the internal step   ....  0.022977616
Converting the step to cartesian space:
 Initial RMS(Int)=    0.0045955233
Transforming coordinates:
 Iter   0:  RMS(Cart)=    0.0073802339 RMS(Int)=    1.7767279527
 Iter   1:  RMS(Cart)=    0.0000395713 RMS(Int)=    0.0000431617
 Iter   2:  RMS(Cart)=    0.0000004895 RMS(Int)=    0.0000003694
 Iter   3:  RMS(Cart)=    0.0000000082 RMS(Int)=    0.0000000085
done
Storing new coordinates                 .... done

                                .--------------------.
          ----------------------|Geometry convergence|-------------------------
          Item                value                   Tolerance       Converged
          ---------------------------------------------------------------------
          Energy change      -0.0024668848            0.0000002000      NO
          RMS gradient        0.0024334848            0.0000080000      NO
          MAX gradient        0.0085221140            0.0000300000      NO
          RMS step            0.0045955233            0.0001000000      NO
          MAX step            0.0117761565            0.0002000000      NO
          ........................................................
          Max(Bonds)      0.0062      Max(Angles)    0.59
          Max(Dihed)        0.20      Max(Improp)    0.00
          ---------------------------------------------------------------------

The optimization has not yet converged - more geometry cycles are needed


    ---------------------------------------------------------------------------
                         Redundant Internal Coordinates
                            (Angstroem and degrees)

        Definition                    Value    dE/dq     Step     New-Value
    ----------------------------------------------------------------------------
     1. B(C   1,C   0)                1.5109 -0.001133  0.0016    1.5125   
     2. B(H   2,C   0)                1.0962 -0.000644  0.0006    1.0969   
     3. B(H   3,C   0)                1.0994 -0.000942  0.0009    1.1003   
     4. B(H   4,C   0)                1.0998 -0.000921  0.0009    1.1007   
     5. B(O   5,C   1)                1.2051 -0.000812  0.0001    1.2052   
     6. B(O   6,C   1)                1.3381 -0.008522  0.0062    1.3444   
     7. B(H   7,O   6)                0.9724 -0.001291  0.0012    0.9735   
     8. A(C   1,C   0,H   2)          112.97  0.001914   -0.24    112.73   
     9. A(C   1,C   0,H   4)          108.45 -0.000973    0.13    108.58   
    10. A(H   2,C   0,H   4)          109.61 -0.000573    0.14    109.75   
    11. A(C   1,C   0,H   3)          108.45 -0.000954    0.12    108.58   
    12. A(H   3,C   0,H   4)          107.60  0.001142   -0.29    107.31   
    13. A(H   2,C   0,H   3)          109.61 -0.000579    0.14    109.75   
    14. A(C   0,C   1,O   5)          124.66 -0.000668    0.13    124.79   
    15. A(O   5,C   1,O   6)          123.79  0.005587   -0.59    123.20   
    16. A(C   0,C   1,O   6)          111.55 -0.004919    0.46    112.02   
    17. A(C   1,O   6,H   7)          107.88  0.002491   -0.58    107.30   
    18. D(O   5,C   1,C   0,H   2)    180.00 -0.000025    0.09    180.09   
    19. D(O   6,C   1,C   0,H   2)      0.03  0.000016   -0.04     -0.01   
    20. D(O   5,C   1,C   0,H   3)     58.29  0.000128   -0.01     58.28   
    21. D(O   6,C   1,C   0,H   3)   -121.68  0.000169   -0.14   -121.82   
    22. D(O   6,C   1,C   0,H   4)    121.75 -0.000143    0.06    121.81   
    23. D(O   5,C   1,C   0,H   4)    -58.29 -0.000184    0.20    -58.09   
    24. D(H   7,O   6,C   1,C   0)    179.92 -0.000031    0.08    180.01   
    25. D(H   7,O   6,C   1,O   5)     -0.04  0.000012   -0.05     -0.09   
    ----------------------------------------------------------------------------

         *************************************************************
         *                GEOMETRY OPTIMIZATION CYCLE   4            *
         *************************************************************
---------------------------------
CARTESIAN COORDINATES (ANGSTROEM)
---------------------------------
  C     -8.209821    1.727149   -0.008300
  C     -6.780201    2.218683    0.038802
  H     -8.280291    0.642037   -0.152041
  H     -8.731786    2.245188   -0.826697
  H     -8.709381    2.011202    0.930421
  O     -6.453103    3.368809    0.189461
  O     -5.897288    1.215298   -0.106134
  H     -5.006349    1.605574   -0.065513

----------------------------
CARTESIAN COORDINATES (A.U.)
----------------------------
  NO LB      ZA    FRAG     MASS         X           Y           Z
   0 C     6.0000    0    12.011  -15.514314    3.263839   -0.015684
   1 C     6.0000    0    12.011  -12.812723    4.192702    0.073326
   2 H     1.0000    0     1.008  -15.647482    1.213274   -0.287317
   3 H     1.0000    0     1.008  -16.500683    4.242790   -1.562231
   4 H     1.0000    0     1.008  -16.458344    3.800622    1.758241
   5 O     8.0000    0    15.999  -12.194597    6.366126    0.358030
   6 O     8.0000    0    15.999  -11.144260    2.296580   -0.200564
   7 H     1.0000    0     1.008   -9.460629    3.034096   -0.123801

--------------------------------
INTERNAL COORDINATES (ANGSTROEM)
--------------------------------
 C      0   0   0     0.000000000000     0.00000000     0.00000000
 C      1   0   0     1.512493890744     0.00000000     0.00000000
 H      1   2   0     1.096857362050   112.72506561     0.00000000
 H      1   2   3     1.100265955987   108.57570330   238.18698901
 H      1   2   3     1.100655262336   108.57678057   121.82053378
 O      2   1   3     1.205189628279   124.78954994   180.08933703
 O      2   1   3     1.344366931596   112.01522272     0.00000000
 H      7   2   1     0.973518500935   107.29732803   180.00538773

---------------------------
INTERNAL COORDINATES (A.U.)
---------------------------
 C      0   0   0     0.000000000000     0.00000000     0.00000000
 C      1   0   0     2.858199232734     0.00000000     0.00000000
 H      1   2   0     2.072760022250   112.72506561     0.00000000
 H      1   2   3     2.079201331293   108.57570330   238.18698901
 H      1   2   3     2.079937013675   108.57678057   121.82053378
 O      2   1   3     2.277478336890   124.78954994   180.08933703
 O      2   1   3     2.540485324216   112.01522272     0.00000000
 H      7   2   1     1.839683353072   107.29732803   180.00538773


Diagonalization of the overlap matrix:
Smallest eigenvalue                        ... 3.622e-03
Time for diagonalization                   ...    0.002 sec
Threshold for overlap eigenvalues          ... 1.000e-08
Number of eigenvalues below threshold      ... 0
Time for construction of square roots      ...    0.000 sec
[...]
Basis set dimensions                             ...   76
Integral neglect threshold                       ... 1.0e-13
Integral primitive cutoff                        ... 1.0e-14

Setting up DFT Hessian calculations              ... 
Electron density on the grid                     ... found on disk
Electron density on the final grid               ... found on disk
Building xc-kernel on the grid                   ... done   (      0.0 sec)
Building xc-kernel on the final grid             ... done   (      0.0 sec)
                                                     done   (      0.0 sec)

Nuclear repulsion Hessian                        ... done   (      0.0 sec)

----------------------------------------------
Forming right-hand sides of CP-SCF equations     ...
----------------------------------------------
One electron integral derivatives                ... done   (      0.1 sec)
Transforming the overlap derivative matrices     ... done   (      0.0 sec)
Making the Q(x) pseudodensities                  ... done   (      0.0 sec)
Adding the E*S(x)*S(y) terms to the Hessian      ... done   (      0.0 sec)
Calculating energy weighted overlap derivatives  ... done   (      0.0 sec)
Two electron integral derivatives                ... done   (      1.5 sec)
Exchange-correlation integral derivatives        ... done   (      6.7 sec)
tr(F(y)Q(x)) contribution to the Hessian         ... done   (      0.0 sec)
Response fock operator R(S(x))                   ... done   (      7.5 sec)
XC Response fock operator R(S(x))                ... done   (      5.3 sec)
tr(F(y)S(x)) contribution to the Hessian         ... done   (      0.0 sec)
Transforming and finalizing RHSs                 ... done   (      0.0 sec)

----------------------------------------------
Solving the CP-SCF equations                     ...
----------------------------------------------
     CP-SCF ITERATION   0: 
     CP-SCF ITERATION   1:      0.003763188978
     CP-SCF ITERATION   2:      0.000292112327
     CP-SCF ITERATION   3:      0.000021767439
     CP-SCF ITERATION   4:      0.000002864035
     CP-SCF ITERATION   5:      0.000000141565
     CP-SCF ITERATION   6:      0.000000014199
     CP-SCF ITERATION   7:      0.000000000647
     CP-SCF ITERATION   8:      0.000000000083

                                                 ... done   (     79.2 sec)
Forming perturbed density Hessian contributions  ... done   (      0.0 sec)
Making the perturbed densities                   ... done   (      0.0 sec)
2nd integral derivative contribs                 ... done   (     20.8 sec)
Exchange-correlation Hessian                     ... done   (     17.6 sec)
Dipol derivatives                                ... done   (      0.8 sec)

Total SCF Hessian time: 0 days 0 hours 2 min 19 sec 

Writing the Hessian file to the disk             ... done


Maximum memory used throughout the entire calculation: 101.3 MB

-----------------------
VIBRATIONAL FREQUENCIES
-----------------------

Scaling factor for frequencies =  1.000000000  (already applied!)

   0:         0.00 cm**-1
   1:         0.00 cm**-1
   2:         0.00 cm**-1
   3:         0.00 cm**-1
   4:         0.00 cm**-1
   5:         0.00 cm**-1
   6:        78.78 cm**-1
   7:       423.81 cm**-1
   8:       543.81 cm**-1
   9:       593.85 cm**-1
  10:       681.82 cm**-1
  11:       873.65 cm**-1
  12:       992.10 cm**-1
  13:      1053.90 cm**-1
  14:      1215.40 cm**-1
  15:      1337.08 cm**-1
  16:      1407.84 cm**-1
  17:      1439.93 cm**-1
  18:      1448.39 cm**-1
  19:      1869.17 cm**-1
  20:      3050.29 cm**-1
  21:      3126.28 cm**-1
  22:      3181.84 cm**-1
  23:      3742.49 cm**-1


------------
NORMAL MODES
------------

These modes are the Cartesian displacements weighted by the diagonal matrix
M(i,i)=1/sqrt(m[i]) where m[i] is the mass of the displaced atom
Thus, these vectors are normalized but *not* orthogonal

                  0          1          2          3          4          5    
      0       0.000000   0.000000   0.000000   0.000000   0.000000   0.000000
      1       0.000000   0.000000   0.000000   0.000000   0.000000   0.000000
      2       0.000000   0.000000   0.000000   0.000000   0.000000   0.000000
      3       0.000000   0.000000   0.000000   0.000000   0.000000   0.000000
      4       0.000000   0.000000   0.000000   0.000000   0.000000   0.000000
      5       0.000000   0.000000   0.000000   0.000000   0.000000   0.000000
      6       0.000000   0.000000   0.000000   0.000000   0.000000   0.000000
      7       0.000000   0.000000   0.000000   0.000000   0.000000   0.000000
      8       0.000000   0.000000   0.000000   0.000000   0.000000   0.000000
      9       0.000000   0.000000   0.000000   0.000000   0.000000   0.000000
     10       0.000000   0.000000   0.000000   0.000000   0.000000   0.000000
     11       0.000000   0.000000   0.000000   0.000000   0.000000   0.000000
     12       0.000000   0.000000   0.000000   0.000000   0.000000   0.000000
     13       0.000000   0.000000   0.000000   0.000000   0.000000   0.000000
     14       0.000000   0.000000   0.000000   0.000000   0.000000   0.000000
     15       0.000000   0.000000   0.000000   0.000000   0.000000   0.000000
     16       0.000000   0.000000   0.000000   0.000000   0.000000   0.000000
     17       0.000000   0.000000   0.000000   0.000000   0.000000   0.000000
     18       0.000000   0.000000   0.000000   0.000000   0.000000   0.000000
     19       0.000000   0.000000   0.000000   0.000000   0.000000   0.000000
     20       0.000000   0.000000   0.000000   0.000000   0.000000   0.000000
     21       0.000000   0.000000   0.000000   0.000000   0.000000   0.000000
     22       0.000000   0.000000   0.000000   0.000000   0.000000   0.000000
     23       0.000000   0.000000   0.000000   0.000000   0.000000   0.000000
                  6          7          8          9         10         11    
      0      -0.000322   0.088240  -0.000685   0.244509  -0.004551   0.283382
      1       0.002340  -0.127622  -0.005199   0.090071   0.024080   0.083849
      2      -0.003161  -0.108526   0.005415   0.042072  -0.031236   0.032732
      3      -0.001163  -0.011310  -0.019804   0.129464  -0.011623  -0.113538
      4       0.007668   0.119116   0.131397   0.019863   0.078696  -0.093243
      5      -0.009822   0.093425  -0.170077  -0.004126  -0.101872  -0.060393
      6      -0.077910   0.386210   0.396533   0.195868   0.238341   0.371042
      7       0.184833  -0.193212  -0.018192   0.103632   0.029441   0.076217
      8       0.563034  -0.209440   0.121489   0.062164   0.087281   0.021487
      9       0.135861   0.385140  -0.376066   0.184206  -0.229488   0.366959
     10      -0.579652  -0.208751  -0.156403   0.102370  -0.117656   0.079223
     11      -0.057341  -0.188955   0.101372   0.060039   0.025845   0.016532
     12      -0.047399  -0.312781   0.023704   0.360353   0.009960   0.365376
     13       0.323803  -0.389338  -0.166454   0.159171  -0.069115   0.123582
     14      -0.415371  -0.264942   0.213142   0.087314   0.089310   0.055559
     15       0.004809   0.138541   0.007024  -0.273742   0.006048  -0.035327
     16      -0.032278   0.088622  -0.036913   0.098552  -0.038844  -0.149983
     17       0.041893   0.052844   0.047048   0.108485   0.050049  -0.111420
     18      -0.004400  -0.217954   0.001404  -0.062012   0.010114  -0.143181
     19       0.029496  -0.018685  -0.008694  -0.169503  -0.063032   0.113872
     20      -0.038191   0.010306   0.012886  -0.122977   0.082232   0.104694
     21       0.000656  -0.114800   0.066187   0.132525  -0.082613  -0.293897
     22      -0.004088  -0.217380  -0.438801  -0.548960   0.549677   0.406065
     23       0.005618  -0.159038   0.574781  -0.431655  -0.715920   0.342783
                 12         13         14         15         16         17    
      0      -0.031886   0.014701  -0.045982   0.068442   0.186308   0.016558
      1       0.128648  -0.103115   0.049937   0.044243   0.028384  -0.031369
      2       0.102995   0.133427   0.043522   0.026685   0.001390  -0.025863
      3      -0.062493  -0.019165   0.119248   0.152563  -0.218615   0.047246
      4       0.006015   0.130150  -0.046079  -0.043546   0.067228  -0.006354
      5       0.011530  -0.168688  -0.048449  -0.051231   0.076812  -0.010303
      6       0.452417  -0.564943   0.062695  -0.418680  -0.494996   0.036520
      7      -0.013258  -0.138663  -0.022989  -0.002608   0.096763   0.170263
      8      -0.164374  -0.236088  -0.133679  -0.260311  -0.032137   0.600875
      9       0.461692   0.543003   0.076437  -0.373892  -0.473642  -0.034787
     10      -0.114517   0.321684  -0.129514  -0.297501  -0.058654   0.627548
     11      -0.037708  -0.001735  -0.000061   0.116576   0.170911   0.020207
     12      -0.614589  -0.034593  -0.303404  -0.391778  -0.270800  -0.340888
     13      -0.255272   0.219992  -0.118356  -0.251455  -0.261646  -0.248960
     14      -0.127048  -0.283273  -0.055747  -0.150187  -0.177065  -0.161673
     15      -0.025838   0.004044  -0.032507  -0.018812   0.019359  -0.013447
     16      -0.022872  -0.027066  -0.077445   0.021867  -0.036011  -0.011582
     17      -0.014761   0.034857  -0.056205   0.019068  -0.030028  -0.007387
     18       0.079549   0.002929  -0.033592  -0.058769   0.069751  -0.011269
     19      -0.063081  -0.019211   0.131158  -0.008555  -0.001893   0.002584
     20      -0.057664   0.025368   0.104665   0.000247  -0.009553   0.003297
     21      -0.027421  -0.000964   0.340387  -0.217693   0.210045  -0.028820
     22       0.142691   0.009359  -0.627642   0.331966  -0.314132   0.043449
     23       0.114023  -0.014645  -0.520956   0.279833  -0.265311   0.036448
                 18         19         20         21         22         23    
      0      -0.004303   0.048649   0.041486   0.008092  -0.036930  -0.000701
      1       0.032084   0.040849   0.026659  -0.056531   0.066389  -0.000531
      2      -0.041670   0.026015   0.016338   0.072509   0.055858  -0.000331
      3      -0.002565  -0.279540  -0.002189   0.000070   0.000870   0.003106
      4       0.015283  -0.542847   0.000111  -0.000308   0.002005   0.000143
      5      -0.019403  -0.387188   0.000335   0.000402   0.001451  -0.000240
      6      -0.398561   0.090445  -0.062870   0.077999  -0.034205  -0.000632
      7       0.152412   0.048196  -0.602531   0.671844  -0.275125   0.002206
      8       0.235029   0.087644   0.195458  -0.199866   0.095921  -0.000238
      9       0.407274   0.080805  -0.156049  -0.177682  -0.076774  -0.000325
     10      -0.211740   0.105681   0.030822   0.015931   0.019734   0.000249
     11      -0.147065   0.012997  -0.619704  -0.679759  -0.280902   0.002290
     12       0.062978  -0.171770  -0.249642   0.002337   0.538321  -0.000007
     13      -0.446226  -0.129581   0.259280  -0.009327  -0.543073   0.000667
     14       0.568965  -0.081125   0.230661   0.009332  -0.484897   0.000549
     15       0.000189   0.152726  -0.000005   0.000019  -0.000202  -0.000221
     16      -0.001401   0.344227  -0.000371  -0.000143  -0.000798   0.000646
     17       0.001596   0.248311  -0.000284   0.000182  -0.000589   0.000516
     18       0.000372   0.009884   0.000170  -0.000008   0.000446   0.057020
     19      -0.001860   0.049618   0.000068   0.000046  -0.000179   0.020437
     20       0.002319   0.037131   0.000029  -0.000057  -0.000194   0.009061
     21       0.001250   0.170786  -0.002310  -0.000072  -0.001544  -0.929197
     22      -0.007114  -0.293772  -0.001744   0.000379  -0.000988  -0.333125
     23       0.008672  -0.246444  -0.001048  -0.000482  -0.000569  -0.147807


-----------
IR SPECTRUM
-----------

 Mode    freq (cm**-1)   T**2         TX         TY         TZ
-------------------------------------------------------------------
   6:        78.78    0.817816  (  0.083169  -0.548537   0.714146)
   7:       423.81    3.784868  (  0.610865  -1.415919  -1.186122)
   8:       543.81   20.862723  (  0.387871  -2.774006   3.607931)
   9:       593.85   42.853217  (  6.308428  -0.972736  -1.452838)
  10:       681.82   99.359875  ( -0.938517   6.060552  -7.858039)
  11:       873.65    3.945759  ( -1.786538  -0.762392  -0.415689)
  12:       992.10   46.459450  ( -5.135654   3.243441   3.092669)
  13:      1053.90   10.211725  ( -0.296588   1.929844  -2.529716)
  14:      1215.40  213.139761  ( 11.040656  -6.929066  -6.575084)
  15:      1337.08   15.680395  (  2.404904  -2.353251  -2.087831)
  16:      1407.84   96.754984  ( -9.389218   1.718451   2.375814)
  17:      1439.93   12.736417  (  1.869794   2.519291   1.701017)
  18:      1448.39    9.710253  (  0.264821  -1.890667   2.462823)
  19:      1869.17  307.172692  ( -3.084050 -13.814690 -10.335166)
  20:      3050.29    1.137467  (  0.785542   0.601560   0.398142)
  21:      3126.28    2.935363  (  0.133405  -1.062182   1.337660)
  22:      3181.84    2.684379  ( -0.933911   1.017826   0.881033)
  23:      3742.49   61.860480  ( -7.769426  -1.223095  -0.023107)

The first frequency considered to be a vibration is 6
The total number of vibrations considered is 18


--------------------------
THERMOCHEMISTRY AT 298.15K
--------------------------

Temperature         ... 298.15 K
Pressure            ... 1.00 atm
Total Mass          ... 60.05 AMU

Throughout the following assumptions are being made:
  (1) The electronic state is orbitally nondegenerate
  (2) There are no thermally accessible electronically excited states
  (3) Hindered rotations indicated by low frequency modes are not
      treated as such but are treated as vibrations and this may
      cause some error
  (4) All equations used are the standard statistical mechanics
      equations for an ideal gas
  (5) All vibrations are strictly harmonic

freq.      78.78  E(vib)   ...       0.49 
freq.     423.81  E(vib)   ...       0.18 
freq.     543.81  E(vib)   ...       0.12 
freq.     593.85  E(vib)   ...       0.10 
freq.     681.82  E(vib)   ...       0.08 
freq.     873.65  E(vib)   ...       0.04 
freq.     992.10  E(vib)   ...       0.02 
freq.    1053.90  E(vib)   ...       0.02 
freq.    1215.40  E(vib)   ...       0.01 
freq.    1337.08  E(vib)   ...       0.01 
freq.    1407.84  E(vib)   ...       0.00 
freq.    1439.93  E(vib)   ...       0.00 
freq.    1448.39  E(vib)   ...       0.00 
freq.    1869.17  E(vib)   ...       0.00 
freq.    3050.29  E(vib)   ...       0.00 
freq.    3126.28  E(vib)   ...       0.00 
freq.    3181.84  E(vib)   ...       0.00 
freq.    3742.49  E(vib)   ...       0.00 

------------
INNER ENERGY
------------

The inner energy is: U= E(el) + E(ZPE) + E(vib) + E(rot) + E(trans)
    E(el)   - is the total energy from the electronic structure calculation
              = E(kin-el) + E(nuc-el) + E(el-el) + E(nuc-nuc)
    E(ZPE)  - the the zero temperature vibrational energy from the frequency calculation
    E(vib)  - the the finite temperature correction to E(ZPE) due to population
              of excited vibrational states
    E(rot)  - is the rotational thermal energy
    E(trans)- is the translational thermal energy

Summary of contributions to the inner energy U:
Electronic energy                ...   -228.79841698 Eh
Zero point energy                ...      0.06164823 Eh      38.68 kcal/mol
Thermal vibrational correction   ...      0.00171377 Eh       1.08 kcal/mol
Thermal rotational correction    ...      0.00141627 Eh       0.89 kcal/mol
Thermal translational correction ...      0.00141627 Eh       0.89 kcal/mol
-----------------------------------------------------------------------
Total thermal energy                   -228.73222243 Eh


Summary of corrections to the electronic energy:
(perhaps to be used in another calculation)
Total thermal correction                  0.00454632 Eh       2.85 kcal/mol
Non-thermal (ZPE) correction              0.06164823 Eh      38.68 kcal/mol
-----------------------------------------------------------------------
Total correction                          0.06619454 Eh      41.54 kcal/mol


--------
ENTHALPY
--------

The enthalpy is H = U + kB*T
                kB is Boltzmann's constant
Total free energy                 ...   -228.73222243 Eh 
Thermal Enthalpy correction       ...      0.00094421 Eh       0.59 kcal/mol
-----------------------------------------------------------------------
Total Enthalpy                    ...   -228.73127823 Eh


Note: Only C1 symmetry has been detected, increase convergence thresholds 
      if your molecule has a higher symmetry. Symmetry factor of 1.0 is   
      used for the rotational entropy correction. 
 

Note: Rotational entropy computed according to Herzberg 
Infrared and Raman Spectra, Chapter V,1, Van Nostrand Reinhold, 1945 
Point Group:  C1, Symmetry Number:   1  
Rotational constants in cm-1:     0.379048     0.314148     0.177500 

Vibrational entropy computed according to the QRRHO of S. Grimme
Chem.Eur.J. 2012 18 9955


-------
ENTROPY
-------

The entropy contributions are T*S = T*(S(el)+S(vib)+S(rot)+S(trans))
     S(el)   - electronic entropy
     S(vib)  - vibrational entropy
     S(rot)  - rotational entropy
     S(trans)- translational entropy
The entropies will be listed as mutliplied by the temperature to get
units of energy

Electronic entropy                ...      0.00000000 Eh      0.00 kcal/mol
Vibrational entropy               ...      0.00284596 Eh      1.79 kcal/mol
Rotational entropy                ...      0.01133155 Eh      7.11 kcal/mol
Translational entropy             ...      0.01814900 Eh     11.39 kcal/mol
-----------------------------------------------------------------------
Final entropy term                ...      0.03232651 Eh     20.29 kcal/mol

In case the symmetry of your molecule has not been determined correctly
or in case you have a reason to use a different symmetry number we print 
out the resulting rotational entropy values for sn=1,12 :
 --------------------------------------------------------
|  sn= 1 | S(rot)=       0.01133155 Eh      7.11 kcal/mol|
|  sn= 2 | S(rot)=       0.01067710 Eh      6.70 kcal/mol|
|  sn= 3 | S(rot)=       0.01029426 Eh      6.46 kcal/mol|
|  sn= 4 | S(rot)=       0.01002264 Eh      6.29 kcal/mol|
|  sn= 5 | S(rot)=       0.00981195 Eh      6.16 kcal/mol|
|  sn= 6 | S(rot)=       0.00963981 Eh      6.05 kcal/mol|
|  sn= 7 | S(rot)=       0.00949426 Eh      5.96 kcal/mol|
|  sn= 8 | S(rot)=       0.00936818 Eh      5.88 kcal/mol|
|  sn= 9 | S(rot)=       0.00925698 Eh      5.81 kcal/mol|
|  sn=10 | S(rot)=       0.00915750 Eh      5.75 kcal/mol|
|  sn=11 | S(rot)=       0.00906751 Eh      5.69 kcal/mol|
|  sn=12 | S(rot)=       0.00898535 Eh      5.64 kcal/mol|
 --------------------------------------------------------


-------------------
GIBBS FREE ENERGY
-------------------

The Gibbs free energy is G = H - T*S

Total enthalpy                    ...   -228.73127823 Eh 
Total entropy correction          ...     -0.03232651 Eh    -20.29 kcal/mol
-----------------------------------------------------------------------
Final Gibbs free energy         ...   -228.76360474 Eh

For completeness - the Gibbs free energy minus the electronic energy
G-E(el)                           ...      0.03481224 Eh     21.84 kcal/mol


Timings for individual modules:

Sum of individual times         ...      435.008 sec (=   7.250 min)
GTO integral calculation        ...       36.445 sec (=   0.607 min)   8.4 %
SCF iterations                  ...      158.844 sec (=   2.647 min)  36.5 %
SCF Gradient evaluation         ...       86.714 sec (=   1.445 min)  19.9 %
Geometry relaxation             ...       12.002 sec (=   0.200 min)   2.8 %
Analytical frequency calculation...      141.003 sec (=   2.350 min)  32.4 %
                             ****ORCA TERMINATED NORMALLY****
TOTAL RUN TIME: 0 days 0 hours 7 minutes 17 seconds 466 msec
