8
* (null), Energy   -1000.0000000
C    -8.215795    1.747651    0.006627    0.016183   -0.113063    0.145019
C    -6.780116    2.175487    0.176181    0.000139   -0.000617    0.000803
H    -8.336900    0.702882    0.333197    0.155998    1.343687   -0.399732
H    -8.495026    1.787828   -1.057969   -0.355364    0.031862   -1.359518
H    -8.868373    2.404449    0.593217    0.004673   -0.018655    0.018663
O    -6.391945    3.099718    0.845370    0.000038   -0.000286    0.000364
O    -5.938312    1.386471   -0.528019   -0.000016    0.000091   -0.000113
H    -5.041754    1.729452   -0.368604   -0.000144    0.000758   -0.000964
8
* Frequency(21) 3126.2773
C    -8.213956    1.734802    0.023108    0.016183   -0.113063    0.145019
C    -6.780100    2.175416    0.176272    0.000139   -0.000617    0.000803
H    -8.319171    0.855585    0.287770    0.155998    1.343687   -0.399732
H    -8.535412    1.791449   -1.212471   -0.355364    0.031862   -1.359518
H    -8.867841    2.402329    0.595338    0.004673   -0.018655    0.018663
O    -6.391941    3.099686    0.845411    0.000038   -0.000286    0.000364
O    -5.938313    1.386482   -0.528032   -0.000016    0.000091   -0.000113
H    -5.041770    1.729539   -0.368714   -0.000144    0.000758   -0.000964
8
* Frequency(21) 3126.2773
C    -8.212316    1.723346    0.037803    0.016183   -0.113063    0.145019
C    -6.780086    2.175354    0.176354    0.000139   -0.000617    0.000803
H    -8.303364    0.991741    0.247265    0.155998    1.343687   -0.399732
H    -8.571421    1.794678   -1.350230   -0.355364    0.031862   -1.359518
H    -8.867368    2.400439    0.597229    0.004673   -0.018655    0.018663
O    -6.391937    3.099657    0.845448    0.000038   -0.000286    0.000364
O    -5.938315    1.386491   -0.528043   -0.000016    0.000091   -0.000113
H    -5.041785    1.729615   -0.368812   -0.000144    0.000758   -0.000964
8
* Frequency(21) 3126.2773
C    -8.211053    1.714523    0.049119    0.016183   -0.113063    0.145019
C    -6.780075    2.175306    0.176416    0.000139   -0.000617    0.000803
H    -8.291191    1.096594    0.216072    0.155998    1.343687   -0.399732
H    -8.599151    1.797164   -1.456319   -0.355364    0.031862   -1.359518
H    -8.867003    2.398983    0.598686    0.004673   -0.018655    0.018663
O    -6.391934    3.099635    0.845476    0.000038   -0.000286    0.000364
O    -5.938316    1.386498   -0.528052   -0.000016    0.000091   -0.000113
H    -5.041796    1.729675   -0.368887   -0.000144    0.000758   -0.000964
8
* Frequency(21) 3126.2773
C    -8.210304    1.709290    0.055831    0.016183   -0.113063    0.145019
C    -6.780068    2.175277    0.176453    0.000139   -0.000617    0.000803
H    -8.283971    1.158782    0.197572    0.155998    1.343687   -0.399732
H    -8.615598    1.798639   -1.519240   -0.355364    0.031862   -1.359518
H    -8.866787    2.398120    0.599549    0.004673   -0.018655    0.018663
O    -6.391932    3.099621    0.845493    0.000038   -0.000286    0.000364
O    -5.938317    1.386502   -0.528057   -0.000016    0.000091   -0.000113
H    -5.041803    1.729710   -0.368931   -0.000144    0.000758   -0.000964
8
* Frequency(21) 3126.2773
C    -8.210150    1.708215    0.057210    0.016183   -0.113063    0.145019
C    -6.780067    2.175271    0.176461    0.000139   -0.000617    0.000803
H    -8.282487    1.171567    0.193769    0.155998    1.343687   -0.399732
H    -8.618979    1.798942   -1.532175   -0.355364    0.031862   -1.359518
H    -8.866742    2.397943    0.599727    0.004673   -0.018655    0.018663
O    -6.391932    3.099619    0.845497    0.000038   -0.000286    0.000364
O    -5.938317    1.386503   -0.528058   -0.000016    0.000091   -0.000113
H    -5.041804    1.729717   -0.368941   -0.000144    0.000758   -0.000964
8
* Frequency(21) 3126.2773
C    -8.210608    1.711413    0.053109    0.016183   -0.113063    0.145019
C    -6.780071    2.175289    0.176438    0.000139   -0.000617    0.000803
H    -8.286899    1.133562    0.205075    0.155998    1.343687   -0.399732
H    -8.608928    1.798040   -1.493722   -0.355364    0.031862   -1.359518
H    -8.866875    2.398470    0.599199    0.004673   -0.018655    0.018663
O    -6.391933    3.099627    0.845486    0.000038   -0.000286    0.000364
O    -5.938317    1.386501   -0.528055   -0.000016    0.000091   -0.000113
H    -5.041800    1.729695   -0.368913   -0.000144    0.000758   -0.000964
8
* Frequency(21) 3126.2773
C    -8.211628    1.718537    0.043970    0.016183   -0.113063    0.145019
C    -6.780080    2.175328    0.176388    0.000139   -0.000617    0.000803
H    -8.296730    1.048886    0.230265    0.155998    1.343687   -0.399732
H    -8.586534    1.796033   -1.408049   -0.355364    0.031862   -1.359518
H    -8.867169    2.399646    0.598023    0.004673   -0.018655    0.018663
O    -6.391935    3.099645    0.845463    0.000038   -0.000286    0.000364
O    -5.938316    1.386495   -0.528048   -0.000016    0.000091   -0.000113
H    -5.041791    1.729648   -0.368853   -0.000144    0.000758   -0.000964
8
* Frequency(21) 3126.2773
C    -8.213099    1.728817    0.030785    0.016183   -0.113063    0.145019
C    -6.780093    2.175384    0.176315    0.000139   -0.000617    0.000803
H    -8.310913    0.926716    0.266609    0.155998    1.343687   -0.399732
H    -8.554223    1.793136   -1.284439   -0.355364    0.031862   -1.359518
H    -8.867594    2.401342    0.596326    0.004673   -0.018655    0.018663
O    -6.391939    3.099671    0.845430    0.000038   -0.000286    0.000364
O    -5.938314    1.386487   -0.528038   -0.000016    0.000091   -0.000113
H    -5.041778    1.729579   -0.368765   -0.000144    0.000758   -0.000964
8
* Frequency(21) 3126.2773
C    -8.214863    1.741138    0.014982    0.016183   -0.113063    0.145019
C    -6.780108    2.175451    0.176227    0.000139   -0.000617    0.000803
H    -8.327913    0.780290    0.310169    0.155998    1.343687   -0.399732
H    -8.515498    1.789663   -1.136288   -0.355364    0.031862   -1.359518
H    -8.868103    2.403375    0.594292    0.004673   -0.018655    0.018663
O    -6.391943    3.099702    0.845391    0.000038   -0.000286    0.000364
O    -5.938312    1.386477   -0.528025   -0.000016    0.000091   -0.000113
H    -5.041762    1.729496   -0.368660   -0.000144    0.000758   -0.000964
8
* Frequency(21) 3126.2773
C    -8.216727    1.754165   -0.001727    0.016183   -0.113063    0.145019
C    -6.780124    2.175522    0.176135    0.000139   -0.000617    0.000803
H    -8.345887    0.625475    0.356225    0.155998    1.343687   -0.399732
H    -8.474555    1.785992   -0.979650   -0.355364    0.031862   -1.359518
H    -8.868642    2.405524    0.592142    0.004673   -0.018655    0.018663
O    -6.391947    3.099735    0.845349    0.000038   -0.000286    0.000364
O    -5.938311    1.386466   -0.528012   -0.000016    0.000091   -0.000113
H    -5.041746    1.729409   -0.368549   -0.000144    0.000758   -0.000964
8
* Frequency(21) 3126.2773
C    -8.218491    1.766486   -0.017530    0.016183   -0.113063    0.145019
C    -6.780139    2.175589    0.176047    0.000139   -0.000617    0.000803
H    -8.362886    0.479049    0.399785    0.155998    1.343687   -0.399732
H    -8.435829    1.782520   -0.831498   -0.355364    0.031862   -1.359518
H    -8.869151    2.407557    0.590108    0.004673   -0.018655    0.018663
O    -6.391951    3.099766    0.845309    0.000038   -0.000286    0.000364
O    -5.938309    1.386456   -0.528000   -0.000016    0.000091   -0.000113
H    -5.041730    1.729326   -0.368444   -0.000144    0.000758   -0.000964
8
* Frequency(21) 3126.2773
C    -8.219962    1.776765   -0.030716    0.016183   -0.113063    0.145019
C    -6.780152    2.175645    0.175974    0.000139   -0.000617    0.000803
H    -8.377070    0.356878    0.436130    0.155998    1.343687   -0.399732
H    -8.403519    1.779623   -0.707888   -0.355364    0.031862   -1.359518
H    -8.869576    2.409253    0.588411    0.004673   -0.018655    0.018663
O    -6.391955    3.099792    0.845276    0.000038   -0.000286    0.000364
O    -5.938307    1.386448   -0.527990   -0.000016    0.000091   -0.000113
H    -5.041717    1.729257   -0.368356   -0.000144    0.000758   -0.000964
8
* Frequency(21) 3126.2773
C    -8.220982    1.783890   -0.039854    0.016183   -0.113063    0.145019
C    -6.780160    2.175684    0.175923    0.000139   -0.000617    0.000803
H    -8.386900    0.272203    0.461320    0.155998    1.343687   -0.399732
H    -8.381125    1.777615   -0.622215   -0.355364    0.031862   -1.359518
H    -8.869870    2.410429    0.587235    0.004673   -0.018655    0.018663
O    -6.391957    3.099810    0.845253    0.000038   -0.000286    0.000364
O    -5.938306    1.386442   -0.527983   -0.000016    0.000091   -0.000113
H    -5.041708    1.729210   -0.368296   -0.000144    0.000758   -0.000964
8
* Frequency(21) 3126.2773
C    -8.221440    1.787088   -0.043956    0.016183   -0.113063    0.145019
C    -6.780164    2.175702    0.175901    0.000139   -0.000617    0.000803
H    -8.391313    0.234198    0.472626    0.155998    1.343687   -0.399732
H    -8.371074    1.776714   -0.583763   -0.355364    0.031862   -1.359518
H    -8.870003    2.410956    0.586707    0.004673   -0.018655    0.018663
O    -6.391958    3.099818    0.845243    0.000038   -0.000286    0.000364
O    -5.938306    1.386440   -0.527979   -0.000016    0.000091   -0.000113
H    -5.041704    1.729188   -0.368268   -0.000144    0.000758   -0.000964
8
* Frequency(21) 3126.2773
C    -8.221286    1.786012   -0.042576    0.016183   -0.113063    0.145019
C    -6.780163    2.175696    0.175908    0.000139   -0.000617    0.000803
H    -8.389828    0.246983    0.468822    0.155998    1.343687   -0.399732
H    -8.374455    1.777017   -0.596698   -0.355364    0.031862   -1.359518
H    -8.869958    2.410779    0.586885    0.004673   -0.018655    0.018663
O    -6.391958    3.099815    0.845246    0.000038   -0.000286    0.000364
O    -5.938306    1.386441   -0.527980   -0.000016    0.000091   -0.000113
H    -5.041705    1.729195   -0.368277   -0.000144    0.000758   -0.000964
8
* Frequency(21) 3126.2773
C    -8.220537    1.780780   -0.035864    0.016183   -0.113063    0.145019
C    -6.780157    2.175667    0.175946    0.000139   -0.000617    0.000803
H    -8.382609    0.309171    0.450322    0.155998    1.343687   -0.399732
H    -8.390902    1.778492   -0.659619   -0.355364    0.031862   -1.359518
H    -8.869742    2.409915    0.587748    0.004673   -0.018655    0.018663
O    -6.391956    3.099802    0.845263    0.000038   -0.000286    0.000364
O    -5.938307    1.386445   -0.527986   -0.000016    0.000091   -0.000113
H    -5.041712    1.729230   -0.368322   -0.000144    0.000758   -0.000964
8
* Frequency(21) 3126.2773
C    -8.219274    1.771957   -0.024548    0.016183   -0.113063    0.145019
C    -6.780146    2.175619    0.176008    0.000139   -0.000617    0.000803
H    -8.370435    0.414024    0.419129    0.155998    1.343687   -0.399732
H    -8.418632    1.780978   -0.765707   -0.355364    0.031862   -1.359518
H    -8.869377    2.408460    0.589205    0.004673   -0.018655    0.018663
O    -6.391953    3.099780    0.845291    0.000038   -0.000286    0.000364
O    -5.938308    1.386452   -0.527994   -0.000016    0.000091   -0.000113
H    -5.041723    1.729290   -0.368397   -0.000144    0.000758   -0.000964
8
* Frequency(21) 3126.2773
C    -8.217634    1.760500   -0.009853    0.016183   -0.113063    0.145019
C    -6.780132    2.175557    0.176090    0.000139   -0.000617    0.000803
H    -8.354628    0.550179    0.378625    0.155998    1.343687   -0.399732
H    -8.454641    1.784207   -0.903467   -0.355364    0.031862   -1.359518
H    -8.868904    2.406569    0.591096    0.004673   -0.018655    0.018663
O    -6.391949    3.099751    0.845328    0.000038   -0.000286    0.000364
O    -5.938310    1.386461   -0.528006   -0.000016    0.000091   -0.000113
H    -5.041738    1.729366   -0.368495   -0.000144    0.000758   -0.000964
8
* Frequency(21) 3126.2773
C    -8.215795    1.747651    0.006627    0.016183   -0.113063    0.145019
C    -6.780116    2.175487    0.176181    0.000139   -0.000617    0.000803
H    -8.336900    0.702882    0.333197    0.155998    1.343687   -0.399732
H    -8.495026    1.787828   -1.057969   -0.355364    0.031862   -1.359518
H    -8.868373    2.404449    0.593217    0.004673   -0.018655    0.018663
O    -6.391945    3.099718    0.845370    0.000038   -0.000286    0.000364
O    -5.938312    1.386471   -0.528019   -0.000016    0.000091   -0.000113
H    -5.041754    1.729452   -0.368604   -0.000144    0.000758   -0.000964
