8
* (null), Energy   -1000.0000000
C    -8.215795    1.747651    0.006627    0.033116   -0.062737   -0.051727
C    -6.780116    2.175487    0.176181    0.094492   -0.012707   -0.020606
H    -8.336900    0.702882    0.333197    0.073039    0.340527    1.201751
H    -8.495026    1.787828   -1.057969   -0.069573    1.255096    0.040414
H    -8.868373    2.404449    0.593217   -0.681777   -0.497920   -0.323345
O    -6.391945    3.099718    0.845370   -0.026894   -0.023163   -0.014774
O    -5.938312    1.386471   -0.528019   -0.022538    0.005168    0.006595
H    -5.041754    1.729452   -0.368604   -0.057639    0.086898    0.072895
8
* Frequency(17) 1439.9253
C    -8.212031    1.740522    0.000749    0.033116   -0.062737   -0.051727
C    -6.769377    2.174042    0.173839    0.094492   -0.012707   -0.020606
H    -8.328599    0.741582    0.469770    0.073039    0.340527    1.201751
H    -8.502933    1.930463   -1.053376   -0.069573    1.255096    0.040414
H    -8.945853    2.347863    0.556470   -0.681777   -0.497920   -0.323345
O    -6.395002    3.097086    0.843691   -0.026894   -0.023163   -0.014774
O    -5.940873    1.387059   -0.527269   -0.022538    0.005168    0.006595
H    -5.048304    1.739328   -0.360320   -0.057639    0.086898    0.072895
8
* Frequency(17) 1439.9253
C    -8.208676    1.734165   -0.004493    0.033116   -0.062737   -0.051727
C    -6.759802    2.172755    0.171751    0.094492   -0.012707   -0.020606
H    -8.321198    0.776087    0.591543    0.073039    0.340527    1.201751
H    -8.509983    2.057641   -1.049281   -0.069573    1.255096    0.040414
H    -9.014937    2.297409    0.523706   -0.681777   -0.497920   -0.323345
O    -6.397727    3.094739    0.842194   -0.026894   -0.023163   -0.014774
O    -5.943157    1.387582   -0.526601   -0.022538    0.005168    0.006595
H    -5.054145    1.748133   -0.352934   -0.057639    0.086898    0.072895
8
* Frequency(17) 1439.9253
C    -8.206092    1.729269   -0.008529    0.033116   -0.062737   -0.051727
C    -6.752429    2.171763    0.170143    0.094492   -0.012707   -0.020606
H    -8.315499    0.802660    0.685320    0.073039    0.340527    1.201751
H    -8.515412    2.155581   -1.046127   -0.069573    1.255096    0.040414
H    -9.068139    2.258555    0.498474   -0.681777   -0.497920   -0.323345
O    -6.399825    3.092931    0.841041   -0.026894   -0.023163   -0.014774
O    -5.944915    1.387986   -0.526086   -0.022538    0.005168    0.006595
H    -5.058643    1.754914   -0.347246   -0.057639    0.086898    0.072895
8
* Frequency(17) 1439.9253
C    -8.204559    1.726365   -0.010923    0.033116   -0.062737   -0.051727
C    -6.748056    2.171175    0.169190    0.094492   -0.012707   -0.020606
H    -8.312118    0.818420    0.740939    0.073039    0.340527    1.201751
H    -8.518632    2.213670   -1.044257   -0.069573    1.255096    0.040414
H    -9.099693    2.235510    0.483509   -0.681777   -0.497920   -0.323345
O    -6.401070    3.091859    0.840357   -0.026894   -0.023163   -0.014774
O    -5.945958    1.388225   -0.525781   -0.022538    0.005168    0.006595
H    -5.061310    1.758936   -0.343872   -0.057639    0.086898    0.072895
8
* Frequency(17) 1439.9253
C    -8.204244    1.725768   -0.011415    0.033116   -0.062737   -0.051727
C    -6.747157    2.171054    0.168994    0.094492   -0.012707   -0.020606
H    -8.311423    0.821660    0.752373    0.073039    0.340527    1.201751
H    -8.519294    2.225611   -1.043872   -0.069573    1.255096    0.040414
H    -9.106179    2.230773    0.480433   -0.681777   -0.497920   -0.323345
O    -6.401326    3.091639    0.840216   -0.026894   -0.023163   -0.014774
O    -5.946173    1.388274   -0.525718   -0.022538    0.005168    0.006595
H    -5.061859    1.759763   -0.343178   -0.057639    0.086898    0.072895
8
* Frequency(17) 1439.9253
C    -8.205180    1.727543   -0.009952    0.033116   -0.062737   -0.051727
C    -6.749829    2.171414    0.169576    0.094492   -0.012707   -0.020606
H    -8.313489    0.812028    0.718383    0.073039    0.340527    1.201751
H    -8.517326    2.190112   -1.045015   -0.069573    1.255096    0.040414
H    -9.086896    2.244856    0.489578   -0.681777   -0.497920   -0.323345
O    -6.400565    3.092294    0.840634   -0.026894   -0.023163   -0.014774
O    -5.945535    1.388128   -0.525905   -0.022538    0.005168    0.006595
H    -5.060229    1.757305   -0.345240   -0.057639    0.086898    0.072895
8
* Frequency(17) 1439.9253
C    -8.207267    1.731496   -0.006693    0.033116   -0.062737   -0.051727
C    -6.755784    2.172214    0.170875    0.094492   -0.012707   -0.020606
H    -8.318092    0.790569    0.642652    0.073039    0.340527    1.201751
H    -8.512942    2.111019   -1.047562   -0.069573    1.255096    0.040414
H    -9.043932    2.276233    0.509954   -0.681777   -0.497920   -0.323345
O    -6.398871    3.093754    0.841565   -0.026894   -0.023163   -0.014774
O    -5.944115    1.387802   -0.526321   -0.022538    0.005168    0.006595
H    -5.056596    1.751829   -0.349834   -0.057639    0.086898    0.072895
8
* Frequency(17) 1439.9253
C    -8.210278    1.737201   -0.001989    0.033116   -0.062737   -0.051727
C    -6.764375    2.173370    0.172748    0.094492   -0.012707   -0.020606
H    -8.324733    0.759608    0.533387    0.073039    0.340527    1.201751
H    -8.506616    1.996904   -1.051237   -0.069573    1.255096    0.040414
H    -8.981944    2.321505    0.539354   -0.681777   -0.497920   -0.323345
O    -6.396425    3.095860    0.842909   -0.026894   -0.023163   -0.014774
O    -5.942066    1.387332   -0.526920   -0.022538    0.005168    0.006595
H    -5.051356    1.743928   -0.356461   -0.057639    0.086898    0.072895
8
* Frequency(17) 1439.9253
C    -8.213887    1.744037    0.003647    0.033116   -0.062737   -0.051727
C    -6.774672    2.174754    0.174994    0.094492   -0.012707   -0.020606
H    -8.332692    0.722500    0.402428    0.073039    0.340527    1.201751
H    -8.499034    1.860132   -1.055641   -0.069573    1.255096    0.040414
H    -8.907648    2.375765    0.574590   -0.681777   -0.497920   -0.323345
O    -6.393494    3.098384    0.844519   -0.026894   -0.023163   -0.014774
O    -5.939610    1.386769   -0.527639   -0.022538    0.005168    0.006595
H    -5.045074    1.734459   -0.364405   -0.057639    0.086898    0.072895
8
* Frequency(17) 1439.9253
C    -8.217703    1.751266    0.009607    0.033116   -0.062737   -0.051727
C    -6.785559    2.176219    0.177368    0.094492   -0.012707   -0.020606
H    -8.341108    0.683265    0.263967    0.073039    0.340527    1.201751
H    -8.491018    1.715524   -1.060297   -0.069573    1.255096    0.040414
H    -8.829097    2.433134    0.611844   -0.681777   -0.497920   -0.323345
O    -6.390396    3.101053    0.846221   -0.026894   -0.023163   -0.014774
O    -5.937013    1.386174   -0.528399   -0.022538    0.005168    0.006595
H    -5.038433    1.724446   -0.372804   -0.057639    0.086898    0.072895
8
* Frequency(17) 1439.9253
C    -8.221311    1.758102    0.015244    0.033116   -0.062737   -0.051727
C    -6.795856    2.177603    0.179613    0.094492   -0.012707   -0.020606
H    -8.349067    0.646157    0.133008    0.073039    0.340527    1.201751
H    -8.483437    1.578752   -1.064701   -0.069573    1.255096    0.040414
H    -8.754801    2.487394    0.647080   -0.681777   -0.497920   -0.323345
O    -6.387465    3.103577    0.847831   -0.026894   -0.023163   -0.014774
O    -5.934557    1.385611   -0.529117   -0.022538    0.005168    0.006595
H    -5.032152    1.714977   -0.380747   -0.057639    0.086898    0.072895
8
* Frequency(17) 1439.9253
C    -8.224322    1.763806    0.019947    0.033116   -0.062737   -0.051727
C    -6.804448    2.178759    0.181487    0.094492   -0.012707   -0.020606
H    -8.355708    0.615196    0.023742    0.073039    0.340527    1.201751
H    -8.477111    1.464636   -1.068376   -0.069573    1.255096    0.040414
H    -8.692813    2.532665    0.676480   -0.681777   -0.497920   -0.323345
O    -6.385020    3.105683    0.849174   -0.026894   -0.023163   -0.014774
O    -5.932508    1.385141   -0.529717   -0.022538    0.005168    0.006595
H    -5.026912    1.707076   -0.387375   -0.057639    0.086898    0.072895
8
* Frequency(17) 1439.9253
C    -8.226409    1.767760    0.023207    0.033116   -0.062737   -0.051727
C    -6.810402    2.179560    0.182785    0.094492   -0.012707   -0.020606
H    -8.360310    0.593737   -0.051989    0.073039    0.340527    1.201751
H    -8.472727    1.385544   -1.070922   -0.069573    1.255096    0.040414
H    -8.649849    2.564043    0.696856   -0.681777   -0.497920   -0.323345
O    -6.383325    3.107143    0.850105   -0.026894   -0.023163   -0.014774
O    -5.931088    1.384815   -0.530133   -0.022538    0.005168    0.006595
H    -5.023279    1.701600   -0.391969   -0.057639    0.086898    0.072895
8
* Frequency(17) 1439.9253
C    -8.227346    1.769534    0.024670    0.033116   -0.062737   -0.051727
C    -6.813075    2.179919    0.183368    0.094492   -0.012707   -0.020606
H    -8.362376    0.584105   -0.085979    0.073039    0.340527    1.201751
H    -8.470759    1.350045   -1.072065   -0.069573    1.255096    0.040414
H    -8.630566    2.578126    0.706001   -0.681777   -0.497920   -0.323345
O    -6.382564    3.107798    0.850523   -0.026894   -0.023163   -0.014774
O    -5.930450    1.384669   -0.530319   -0.022538    0.005168    0.006595
H    -5.021649    1.699142   -0.394031   -0.057639    0.086898    0.072895
8
* Frequency(17) 1439.9253
C    -8.227031    1.768937    0.024178    0.033116   -0.062737   -0.051727
C    -6.812176    2.179798    0.183172    0.094492   -0.012707   -0.020606
H    -8.361681    0.587345   -0.074545    0.073039    0.340527    1.201751
H    -8.471421    1.361986   -1.071681   -0.069573    1.255096    0.040414
H    -8.637052    2.573389    0.702925   -0.681777   -0.497920   -0.323345
O    -6.382820    3.107577    0.850382   -0.026894   -0.023163   -0.014774
O    -5.930665    1.384718   -0.530256   -0.022538    0.005168    0.006595
H    -5.022197    1.699969   -0.393337   -0.057639    0.086898    0.072895
8
* Frequency(17) 1439.9253
C    -8.225498    1.766034    0.021784    0.033116   -0.062737   -0.051727
C    -6.807803    2.179210    0.182219    0.094492   -0.012707   -0.020606
H    -8.358301    0.603105   -0.018926    0.073039    0.340527    1.201751
H    -8.474641    1.420074   -1.069810   -0.069573    1.255096    0.040414
H    -8.668606    2.550344    0.687960   -0.681777   -0.497920   -0.323345
O    -6.384065    3.106505    0.849699   -0.026894   -0.023163   -0.014774
O    -5.931708    1.384957   -0.529951   -0.022538    0.005168    0.006595
H    -5.024865    1.703991   -0.389963   -0.057639    0.086898    0.072895
8
* Frequency(17) 1439.9253
C    -8.222914    1.761138    0.017747    0.033116   -0.062737   -0.051727
C    -6.800429    2.178218    0.180611    0.094492   -0.012707   -0.020606
H    -8.352601    0.629678    0.074851    0.073039    0.340527    1.201751
H    -8.480070    1.518014   -1.066657   -0.069573    1.255096    0.040414
H    -8.721808    2.511489    0.662728   -0.681777   -0.497920   -0.323345
O    -6.386164    3.104698    0.848546   -0.026894   -0.023163   -0.014774
O    -5.933466    1.385361   -0.529436   -0.022538    0.005168    0.006595
H    -5.029363    1.710772   -0.384275   -0.057639    0.086898    0.072895
8
* Frequency(17) 1439.9253
C    -8.219558    1.754781    0.012506    0.033116   -0.062737   -0.051727
C    -6.790854    2.176931    0.178523    0.094492   -0.012707   -0.020606
H    -8.345200    0.664183    0.196624    0.073039    0.340527    1.201751
H    -8.487120    1.645193   -1.062562   -0.069573    1.255096    0.040414
H    -8.790892    2.461035    0.629964   -0.681777   -0.497920   -0.323345
O    -6.388889    3.102351    0.847049   -0.026894   -0.023163   -0.014774
O    -5.935750    1.385884   -0.528768   -0.022538    0.005168    0.006595
H    -5.035204    1.719577   -0.376889   -0.057639    0.086898    0.072895
8
* Frequency(17) 1439.9253
C    -8.215795    1.747651    0.006627    0.033116   -0.062737   -0.051727
C    -6.780116    2.175487    0.176181    0.094492   -0.012707   -0.020606
H    -8.336900    0.702882    0.333197    0.073039    0.340527    1.201751
H    -8.495026    1.787828   -1.057969   -0.069573    1.255096    0.040414
H    -8.868373    2.404449    0.593217   -0.681777   -0.497920   -0.323345
O    -6.391945    3.099718    0.845370   -0.026894   -0.023163   -0.014774
O    -5.938312    1.386471   -0.528019   -0.022538    0.005168    0.006595
H    -5.041754    1.729452   -0.368604   -0.057639    0.086898    0.072895
