8
* (null), Energy   -1000.0000000
C    -8.215795    1.747651    0.006627    0.566764    0.167697    0.065465
C    -6.780116    2.175487    0.176181   -0.227076   -0.186486   -0.120786
H    -8.336900    0.702882    0.333197    0.742084    0.152433    0.042973
H    -8.495026    1.787828   -1.057969    0.733918    0.158447    0.033064
H    -8.868373    2.404449    0.593217    0.730752    0.247165    0.111118
O    -6.391945    3.099718    0.845370   -0.070654   -0.299965   -0.222840
O    -5.938312    1.386471   -0.528019   -0.286363    0.227744    0.209387
H    -5.041754    1.729452   -0.368604   -0.587793    0.812129    0.685566
8
* Frequency(11)  873.6482
C    -8.151385    1.766709    0.014067    0.566764    0.167697    0.065465
C    -6.805922    2.154293    0.162454   -0.227076   -0.186486   -0.120786
H    -8.252566    0.720206    0.338081    0.742084    0.152433    0.042973
H    -8.411620    1.805835   -1.054211    0.733918    0.158447    0.033064
H    -8.785326    2.432538    0.605845    0.730752    0.247165    0.111118
O    -6.399975    3.065629    0.820045   -0.070654   -0.299965   -0.222840
O    -5.970855    1.412353   -0.504223   -0.286363    0.227744    0.209387
H    -5.108554    1.821747   -0.290693   -0.587793    0.812129    0.685566
8
* Frequency(11)  873.6482
C    -8.093955    1.783702    0.020701    0.566764    0.167697    0.065465
C    -6.828931    2.135397    0.150215   -0.227076   -0.186486   -0.120786
H    -8.177371    0.735652    0.342435    0.742084    0.152433    0.042973
H    -8.337253    1.821890   -1.050861    0.733918    0.158447    0.033064
H    -8.711279    2.457584    0.617104    0.730752    0.247165    0.111118
O    -6.407134    3.035233    0.797465   -0.070654   -0.299965   -0.222840
O    -5.999872    1.435431   -0.483006   -0.286363    0.227744    0.209387
H    -5.168114    1.904040   -0.221225   -0.587793    0.812129    0.685566
8
* Frequency(11)  873.6482
C    -8.049728    1.796788    0.025809    0.566764    0.167697    0.065465
C    -6.846651    2.120845    0.140790   -0.227076   -0.186486   -0.120786
H    -8.119463    0.747547    0.345789    0.742084    0.152433    0.042973
H    -8.279982    1.834254   -1.048281    0.733918    0.158447    0.033064
H    -8.654256    2.476871    0.625775    0.730752    0.247165    0.111118
O    -6.412647    3.011826    0.780076   -0.070654   -0.299965   -0.222840
O    -6.022218    1.453202   -0.466667   -0.286363    0.227744    0.209387
H    -5.213982    1.967413   -0.167728   -0.587793    0.812129    0.685566
8
* Frequency(11)  873.6482
C    -8.023498    1.804549    0.028839    0.566764    0.167697    0.065465
C    -6.857160    2.112214    0.135199   -0.227076   -0.186486   -0.120786
H    -8.085118    0.754602    0.347777    0.742084    0.152433    0.042973
H    -8.246015    1.841587   -1.046750    0.733918    0.158447    0.033064
H    -8.620436    2.488310    0.630918    0.730752    0.247165    0.111118
O    -6.415917    2.997943    0.769762   -0.070654   -0.299965   -0.222840
O    -6.035472    1.463743   -0.456976   -0.286363    0.227744    0.209387
H    -5.241186    2.005000   -0.135999   -0.587793    0.812129    0.685566
8
* Frequency(11)  873.6482
C    -8.018105    1.806145    0.029462    0.566764    0.167697    0.065465
C    -6.859321    2.110440    0.134050   -0.227076   -0.186486   -0.120786
H    -8.078057    0.756052    0.348186    0.742084    0.152433    0.042973
H    -8.239032    1.843095   -1.046436    0.733918    0.158447    0.033064
H    -8.613483    2.490662    0.631975    0.730752    0.247165    0.111118
O    -6.416589    2.995089    0.767642   -0.070654   -0.299965   -0.222840
O    -6.038196    1.465910   -0.454984   -0.286363    0.227744    0.209387
H    -5.246779    2.012727   -0.129476   -0.587793    0.812129    0.685566
8
* Frequency(11)  873.6482
C    -8.034135    1.801402    0.027610    0.566764    0.167697    0.065465
C    -6.852898    2.115714    0.137466   -0.227076   -0.186486   -0.120786
H    -8.099046    0.751740    0.346971    0.742084    0.152433    0.042973
H    -8.259790    1.838613   -1.047371    0.733918    0.158447    0.033064
H    -8.634151    2.483671    0.628833    0.730752    0.247165    0.111118
O    -6.414591    3.003573    0.773945   -0.070654   -0.299965   -0.222840
O    -6.030097    1.459468   -0.460906   -0.286363    0.227744    0.209387
H    -5.230154    1.989757   -0.148866   -0.587793    0.812129    0.685566
8
* Frequency(11)  873.6482
C    -8.069851    1.790834    0.023485    0.566764    0.167697    0.065465
C    -6.838589    2.127466    0.145078   -0.227076   -0.186486   -0.120786
H    -8.145811    0.742135    0.344263    0.742084    0.152433    0.042973
H    -8.306040    1.828629   -1.049455    0.733918    0.158447    0.033064
H    -8.680201    2.468095    0.621830    0.730752    0.247165    0.111118
O    -6.410139    3.022476    0.787988   -0.070654   -0.299965   -0.222840
O    -6.012051    1.445116   -0.474101   -0.286363    0.227744    0.209387
H    -5.193113    1.938579   -0.192069   -0.587793    0.812129    0.685566
8
* Frequency(11)  873.6482
C    -8.121382    1.775587    0.017532    0.566764    0.167697    0.065465
C    -6.817942    2.144421    0.156060   -0.227076   -0.186486   -0.120786
H    -8.213282    0.728275    0.340356    0.742084    0.152433    0.042973
H    -8.372769    1.814222   -1.052461    0.733918    0.158447    0.033064
H    -8.746643    2.445623    0.611727    0.730752    0.247165    0.111118
O    -6.403715    3.049750    0.808249   -0.070654   -0.299965   -0.222840
O    -5.986014    1.424409   -0.493139   -0.286363    0.227744    0.209387
H    -5.139669    1.864738   -0.254402   -0.587793    0.812129    0.685566
8
* Frequency(11)  873.6482
C    -8.183145    1.757312    0.010399    0.566764    0.167697    0.065465
C    -6.793197    2.164743    0.169223   -0.227076   -0.186486   -0.120786
H    -8.294150    0.711664    0.335673    0.742084    0.152433    0.042973
H    -8.452747    1.796956   -1.056064    0.733918    0.158447    0.033064
H    -8.826275    2.418688    0.599618    0.730752    0.247165    0.111118
O    -6.396015    3.082438    0.832532   -0.070654   -0.299965   -0.222840
O    -5.954808    1.399591   -0.515956   -0.286363    0.227744    0.209387
H    -5.075616    1.776238   -0.329110   -0.587793    0.812129    0.685566
8
* Frequency(11)  873.6482
C    -8.248445    1.737991    0.002856    0.566764    0.167697    0.065465
C    -6.767034    2.186230    0.183139   -0.227076   -0.186486   -0.120786
H    -8.379650    0.694101    0.330722    0.742084    0.152433    0.042973
H    -8.537306    1.778700   -1.059874    0.733918    0.158447    0.033064
H    -8.910470    2.390211    0.586816    0.730752    0.247165    0.111118
O    -6.387875    3.116999    0.858207   -0.070654   -0.299965   -0.222840
O    -5.921815    1.373352   -0.540081   -0.286363    0.227744    0.209387
H    -5.007892    1.682667   -0.408099   -0.587793    0.812129    0.685566
8
* Frequency(11)  873.6482
C    -8.310207    1.719716   -0.004278    0.566764    0.167697    0.065465
C    -6.742289    2.206552    0.196302   -0.227076   -0.186486   -0.120786
H    -8.460517    0.677490    0.326039    0.742084    0.152433    0.042973
H    -8.617284    1.761434   -1.063477    0.733918    0.158447    0.033064
H    -8.990102    2.363276    0.574707    0.730752    0.247165    0.111118
O    -6.380176    3.149687    0.882491   -0.070654   -0.299965   -0.222840
O    -5.890609    1.348534   -0.562899   -0.286363    0.227744    0.209387
H    -4.943838    1.594167   -0.482807   -0.587793    0.812129    0.685566
8
* Frequency(11)  873.6482
C    -8.361738    1.704469   -0.010230    0.566764    0.167697    0.065465
C    -6.721643    2.223507    0.207284   -0.227076   -0.186486   -0.120786
H    -8.527989    0.663630    0.322131    0.742084    0.152433    0.042973
H    -8.684013    1.747027   -1.066483    0.733918    0.158447    0.033064
H    -9.056544    2.340804    0.564604    0.730752    0.247165    0.111118
O    -6.373752    3.176960    0.902752   -0.070654   -0.299965   -0.222840
O    -5.864572    1.327827   -0.581937   -0.286363    0.227744    0.209387
H    -4.890395    1.520326   -0.545140   -0.587793    0.812129    0.685566
8
* Frequency(11)  873.6482
C    -8.397454    1.693901   -0.014355    0.566764    0.167697    0.065465
C    -6.707333    2.235259    0.214895   -0.227076   -0.186486   -0.120786
H    -8.574753    0.654024    0.319423    0.742084    0.152433    0.042973
H    -8.730262    1.737042   -1.068567    0.733918    0.158447    0.033064
H    -9.102594    2.325228    0.557601    0.730752    0.247165    0.111118
O    -6.369299    3.195863    0.916795   -0.070654   -0.299965   -0.222840
O    -5.846526    1.313475   -0.595132   -0.286363    0.227744    0.209387
H    -4.853354    1.469148   -0.588342   -0.587793    0.812129    0.685566
8
* Frequency(11)  873.6482
C    -8.413485    1.689158   -0.016207    0.566764    0.167697    0.065465
C    -6.700911    2.240534    0.218312   -0.227076   -0.186486   -0.120786
H    -8.595742    0.649713    0.318208    0.742084    0.152433    0.042973
H    -8.751020    1.732561   -1.069502    0.733918    0.158447    0.033064
H    -9.123262    2.318237    0.554459    0.730752    0.247165    0.111118
O    -6.367301    3.204348    0.923097   -0.070654   -0.299965   -0.222840
O    -5.838427    1.307033   -0.601054   -0.286363    0.227744    0.209387
H    -4.836729    1.446178   -0.607733   -0.587793    0.812129    0.685566
8
* Frequency(11)  873.6482
C    -8.408092    1.690753   -0.015584    0.566764    0.167697    0.065465
C    -6.703071    2.238759    0.217162   -0.227076   -0.186486   -0.120786
H    -8.588682    0.651163    0.318617    0.742084    0.152433    0.042973
H    -8.744038    1.734069   -1.069187    0.733918    0.158447    0.033064
H    -9.116309    2.320589    0.555516    0.730752    0.247165    0.111118
O    -6.367973    3.201494    0.920977   -0.070654   -0.299965   -0.222840
O    -5.841151    1.309200   -0.599062   -0.286363    0.227744    0.209387
H    -4.842322    1.453905   -0.601210   -0.587793    0.812129    0.685566
8
* Frequency(11)  873.6482
C    -8.381861    1.698515   -0.012554    0.566764    0.167697    0.065465
C    -6.713581    2.230128    0.211572   -0.227076   -0.186486   -0.120786
H    -8.554337    0.658218    0.320606    0.742084    0.152433    0.042973
H    -8.710071    1.741402   -1.067657    0.733918    0.158447    0.033064
H    -9.082489    2.332028    0.560659    0.730752    0.247165    0.111118
O    -6.371243    3.187611    0.910664   -0.070654   -0.299965   -0.222840
O    -5.854405    1.319741   -0.589371   -0.286363    0.227744    0.209387
H    -4.869526    1.491492   -0.569481   -0.587793    0.812129    0.685566
8
* Frequency(11)  873.6482
C    -8.337635    1.711601   -0.007446    0.566764    0.167697    0.065465
C    -6.731300    2.215576    0.202147   -0.227076   -0.186486   -0.120786
H    -8.496429    0.670113    0.323959    0.742084    0.152433    0.042973
H    -8.652800    1.753766   -1.065077    0.733918    0.158447    0.033064
H    -9.025466    2.351315    0.569330    0.730752    0.247165    0.111118
O    -6.376756    3.164203    0.893275   -0.070654   -0.299965   -0.222840
O    -5.876751    1.337512   -0.573032   -0.286363    0.227744    0.209387
H    -4.915394    1.554865   -0.515984   -0.587793    0.812129    0.685566
8
* Frequency(11)  873.6482
C    -8.280205    1.728594   -0.000812    0.566764    0.167697    0.065465
C    -6.754310    2.196680    0.189908   -0.227076   -0.186486   -0.120786
H    -8.421234    0.685559    0.328313    0.742084    0.152433    0.042973
H    -8.578432    1.769821   -1.061726    0.733918    0.158447    0.033064
H    -8.951419    2.376360    0.580589    0.730752    0.247165    0.111118
O    -6.383916    3.133808    0.870694   -0.070654   -0.299965   -0.222840
O    -5.905768    1.360590   -0.551815   -0.286363    0.227744    0.209387
H    -4.974954    1.637158   -0.446515   -0.587793    0.812129    0.685566
8
* Frequency(11)  873.6482
C    -8.215795    1.747651    0.006627    0.566764    0.167697    0.065465
C    -6.780116    2.175487    0.176181   -0.227076   -0.186486   -0.120786
H    -8.336900    0.702882    0.333197    0.742084    0.152433    0.042973
H    -8.495026    1.787828   -1.057969    0.733918    0.158447    0.033064
H    -8.868373    2.404449    0.593217    0.730752    0.247165    0.111118
O    -6.391945    3.099718    0.845370   -0.070654   -0.299965   -0.222840
O    -5.938312    1.386471   -0.528019   -0.286363    0.227744    0.209387
H    -5.041754    1.729452   -0.368604   -0.587793    0.812129    0.685566
