8
* (null), Energy   -1000.0000000
C    -8.215795    1.747651    0.006627   -0.073859    0.132779    0.111716
C    -6.780116    2.175487    0.176181    0.001740    0.004009    0.002902
H    -8.336900    0.702882    0.333197   -0.068409   -0.550249    0.191843
H    -8.495026    1.787828   -1.057969   -0.153548    0.039467   -0.561803
H    -8.868373    2.404449    0.593217    1.076641   -1.086146   -0.969795
O    -6.391945    3.099718    0.845370   -0.000404   -0.001596   -0.001178
O    -5.938312    1.386471   -0.528019    0.000893   -0.000359   -0.000389
H    -5.041754    1.729452   -0.368604   -0.003089   -0.001976   -0.001138
8
* Frequency(22) 3181.8440
C    -8.224189    1.762741    0.019323   -0.073859    0.132779    0.111716
C    -6.779918    2.175942    0.176511    0.001740    0.004009    0.002902
H    -8.344674    0.640349    0.354999   -0.068409   -0.550249    0.191843
H    -8.512476    1.792313   -1.121815   -0.153548    0.039467   -0.561803
H    -8.746018    2.281015    0.483005    1.076641   -1.086146   -0.969795
O    -6.391991    3.099537    0.845236   -0.000404   -0.001596   -0.001178
O    -5.938210    1.386431   -0.528063    0.000893   -0.000359   -0.000389
H    -5.042105    1.729228   -0.368734   -0.003089   -0.001976   -0.001138
8
* Frequency(22) 3181.8440
C    -8.231673    1.776195    0.030643   -0.073859    0.132779    0.111716
C    -6.779742    2.176348    0.176805    0.001740    0.004009    0.002902
H    -8.351606    0.584593    0.374438   -0.068409   -0.550249    0.191843
H    -8.528035    1.796312   -1.178742   -0.153548    0.039467   -0.561803
H    -8.636922    2.170956    0.384736    1.076641   -1.086146   -0.969795
O    -6.392032    3.099375    0.845116   -0.000404   -0.001596   -0.001178
O    -5.938120    1.386394   -0.528102    0.000893   -0.000359   -0.000389
H    -5.042418    1.729028   -0.368849   -0.003089   -0.001976   -0.001138
8
* Frequency(22) 3181.8440
C    -8.237436    1.786557    0.039361   -0.073859    0.132779    0.111716
C    -6.779606    2.176661    0.177031    0.001740    0.004009    0.002902
H    -8.356944    0.541655    0.389409   -0.068409   -0.550249    0.191843
H    -8.540017    1.799392   -1.222582   -0.153548    0.039467   -0.561803
H    -8.552908    2.086200    0.309059    1.076641   -1.086146   -0.969795
O    -6.392064    3.099251    0.845025   -0.000404   -0.001596   -0.001178
O    -5.938050    1.386366   -0.528133    0.000893   -0.000359   -0.000389
H    -5.042659    1.728874   -0.368938   -0.003089   -0.001976   -0.001138
8
* Frequency(22) 3181.8440
C    -8.240855    1.792702    0.044532   -0.073859    0.132779    0.111716
C    -6.779525    2.176847    0.177166    0.001740    0.004009    0.002902
H    -8.360110    0.516188    0.398287   -0.068409   -0.550249    0.191843
H    -8.547124    1.801219   -1.248583   -0.153548    0.039467   -0.561803
H    -8.503079    2.035931    0.264175    1.076641   -1.086146   -0.969795
O    -6.392082    3.099177    0.844970   -0.000404   -0.001596   -0.001178
O    -5.938009    1.386350   -0.528151    0.000893   -0.000359   -0.000389
H    -5.042802    1.728782   -0.368991   -0.003089   -0.001976   -0.001138
8
* Frequency(22) 3181.8440
C    -8.241557    1.793965    0.045595   -0.073859    0.132779    0.111716
C    -6.779509    2.176885    0.177193    0.001740    0.004009    0.002902
H    -8.360761    0.510953    0.400113   -0.068409   -0.550249    0.191843
H    -8.548585    1.801594   -1.253928   -0.153548    0.039467   -0.561803
H    -8.492835    2.025597    0.254948    1.076641   -1.086146   -0.969795
O    -6.392086    3.099162    0.844959   -0.000404   -0.001596   -0.001178
O    -5.938000    1.386346   -0.528154    0.000893   -0.000359   -0.000389
H    -5.042831    1.728763   -0.369001   -0.003089   -0.001976   -0.001138
8
* Frequency(22) 3181.8440
C    -8.239468    1.790210    0.042435   -0.073859    0.132779    0.111716
C    -6.779558    2.176772    0.177111    0.001740    0.004009    0.002902
H    -8.358826    0.526516    0.394687   -0.068409   -0.550249    0.191843
H    -8.544242    1.800478   -1.238038   -0.153548    0.039467   -0.561803
H    -8.523287    2.056317    0.282378    1.076641   -1.086146   -0.969795
O    -6.392075    3.099207    0.844992   -0.000404   -0.001596   -0.001178
O    -5.938025    1.386356   -0.528143    0.000893   -0.000359   -0.000389
H    -5.042744    1.728819   -0.368969   -0.003089   -0.001976   -0.001138
8
* Frequency(22) 3181.8440
C    -8.234814    1.781842    0.035395   -0.073859    0.132779    0.111716
C    -6.779668    2.176519    0.176928    0.001740    0.004009    0.002902
H    -8.354515    0.561191    0.382597   -0.068409   -0.550249    0.191843
H    -8.534566    1.797991   -1.202635   -0.153548    0.039467   -0.561803
H    -8.591134    2.124763    0.343492    1.076641   -1.086146   -0.969795
O    -6.392049    3.099307    0.845066   -0.000404   -0.001596   -0.001178
O    -5.938082    1.386379   -0.528119    0.000893   -0.000359   -0.000389
H    -5.042549    1.728944   -0.368898   -0.003089   -0.001976   -0.001138
8
* Frequency(22) 3181.8440
C    -8.228098    1.769770    0.025237   -0.073859    0.132779    0.111716
C    -6.779826    2.176154    0.176664    0.001740    0.004009    0.002902
H    -8.348296    0.611221    0.365155   -0.068409   -0.550249    0.191843
H    -8.520605    1.794402   -1.151555   -0.153548    0.039467   -0.561803
H    -8.689024    2.223518    0.431667    1.076641   -1.086146   -0.969795
O    -6.392013    3.099453    0.845173   -0.000404   -0.001596   -0.001178
O    -5.938163    1.386412   -0.528084    0.000893   -0.000359   -0.000389
H    -5.042269    1.729123   -0.368794   -0.003089   -0.001976   -0.001138
8
* Frequency(22) 3181.8440
C    -8.220050    1.755301    0.013063   -0.073859    0.132779    0.111716
C    -6.780015    2.175718    0.176348    0.001740    0.004009    0.002902
H    -8.340841    0.671184    0.344249   -0.068409   -0.550249    0.191843
H    -8.503872    1.790102   -1.090333   -0.153548    0.039467   -0.561803
H    -8.806349    2.341879    0.537349    1.076641   -1.086146   -0.969795
O    -6.391968    3.099626    0.845302   -0.000404   -0.001596   -0.001178
O    -5.938260    1.386451   -0.528041    0.000893   -0.000359   -0.000389
H    -5.041932    1.729339   -0.368670   -0.003089   -0.001976   -0.001138
8
* Frequency(22) 3181.8440
C    -8.211540    1.740002    0.000192   -0.073859    0.132779    0.111716
C    -6.780216    2.175256    0.176014    0.001740    0.004009    0.002902
H    -8.332959    0.734581    0.322145   -0.068409   -0.550249    0.191843
H    -8.486181    1.785554   -1.025604   -0.153548    0.039467   -0.561803
H    -8.930396    2.467020    0.649085    1.076641   -1.086146   -0.969795
O    -6.391922    3.099810    0.845437   -0.000404   -0.001596   -0.001178
O    -5.938363    1.386492   -0.527996    0.000893   -0.000359   -0.000389
H    -5.041576    1.729566   -0.368539   -0.003089   -0.001976   -0.001138
8
* Frequency(22) 3181.8440
C    -8.203491    1.725533   -0.011983   -0.073859    0.132779    0.111716
C    -6.780406    2.174819    0.175697    0.001740    0.004009    0.002902
H    -8.325504    0.794544    0.301240   -0.068409   -0.550249    0.191843
H    -8.469448    1.781253   -0.964383   -0.153548    0.039467   -0.561803
H    -9.047721    2.585381    0.754767    1.076641   -1.086146   -0.969795
O    -6.391878    3.099984    0.845566   -0.000404   -0.001596   -0.001178
O    -5.938460    1.386531   -0.527954    0.000893   -0.000359   -0.000389
H    -5.041239    1.729782   -0.368415   -0.003089   -0.001976   -0.001138
8
* Frequency(22) 3181.8440
C    -8.196776    1.713460   -0.022140   -0.073859    0.132779    0.111716
C    -6.780564    2.174454    0.175434    0.001740    0.004009    0.002902
H    -8.319284    0.844573    0.283797   -0.068409   -0.550249    0.191843
H    -8.455487    1.777665   -0.913303   -0.153548    0.039467   -0.561803
H    -9.145611    2.684136    0.842942    1.076641   -1.086146   -0.969795
O    -6.391841    3.100129    0.845673   -0.000404   -0.001596   -0.001178
O    -5.938541    1.386564   -0.527919    0.000893   -0.000359   -0.000389
H    -5.040959    1.729961   -0.368311   -0.003089   -0.001976   -0.001138
8
* Frequency(22) 3181.8440
C    -8.192121    1.705093   -0.029180   -0.073859    0.132779    0.111716
C    -6.780674    2.174202    0.175251    0.001740    0.004009    0.002902
H    -8.314973    0.879249    0.271708   -0.068409   -0.550249    0.191843
H    -8.445811    1.775178   -0.877899   -0.153548    0.039467   -0.561803
H    -9.213458    2.752582    0.904056    1.076641   -1.086146   -0.969795
O    -6.391816    3.100230    0.845747   -0.000404   -0.001596   -0.001178
O    -5.938598    1.386586   -0.527894    0.000893   -0.000359   -0.000389
H    -5.040764    1.730086   -0.368240   -0.003089   -0.001976   -0.001138
8
* Frequency(22) 3181.8440
C    -8.190032    1.701338   -0.032340   -0.073859    0.132779    0.111716
C    -6.780723    2.174088    0.175169    0.001740    0.004009    0.002902
H    -8.313038    0.894812    0.266281   -0.068409   -0.550249    0.191843
H    -8.441468    1.774062   -0.862009   -0.153548    0.039467   -0.561803
H    -9.243910    2.783302    0.931486    1.076641   -1.086146   -0.969795
O    -6.391804    3.100275    0.845780   -0.000404   -0.001596   -0.001178
O    -5.938623    1.386597   -0.527883    0.000893   -0.000359   -0.000389
H    -5.040677    1.730142   -0.368207   -0.003089   -0.001976   -0.001138
8
* Frequency(22) 3181.8440
C    -8.190735    1.702601   -0.031277   -0.073859    0.132779    0.111716
C    -6.780706    2.174126    0.175196    0.001740    0.004009    0.002902
H    -8.313689    0.889576    0.268107   -0.068409   -0.550249    0.191843
H    -8.442929    1.774437   -0.867355   -0.153548    0.039467   -0.561803
H    -9.233666    2.772968    0.922259    1.076641   -1.086146   -0.969795
O    -6.391808    3.100260    0.845769   -0.000404   -0.001596   -0.001178
O    -5.938614    1.386593   -0.527887    0.000893   -0.000359   -0.000389
H    -5.040706    1.730123   -0.368218   -0.003089   -0.001976   -0.001138
8
* Frequency(22) 3181.8440
C    -8.194153    1.708746   -0.026107   -0.073859    0.132779    0.111716
C    -6.780626    2.174312    0.175331    0.001740    0.004009    0.002902
H    -8.316855    0.864110    0.276986   -0.068409   -0.550249    0.191843
H    -8.450035    1.776264   -0.893356   -0.153548    0.039467   -0.561803
H    -9.183837    2.722699    0.877375    1.076641   -1.086146   -0.969795
O    -6.391827    3.100186    0.845715   -0.000404   -0.001596   -0.001178
O    -5.938573    1.386577   -0.527905    0.000893   -0.000359   -0.000389
H    -5.040849    1.730031   -0.368271   -0.003089   -0.001976   -0.001138
8
* Frequency(22) 3181.8440
C    -8.199917    1.719107   -0.017389   -0.073859    0.132779    0.111716
C    -6.780490    2.174625    0.175557    0.001740    0.004009    0.002902
H    -8.322194    0.821172    0.291956   -0.068409   -0.550249    0.191843
H    -8.462017    1.779343   -0.937195   -0.153548    0.039467   -0.561803
H    -9.099823    2.637943    0.801698    1.076641   -1.086146   -0.969795
O    -6.391858    3.100061    0.845623   -0.000404   -0.001596   -0.001178
O    -5.938503    1.386549   -0.527935    0.000893   -0.000359   -0.000389
H    -5.041090    1.729877   -0.368360   -0.003089   -0.001976   -0.001138
8
* Frequency(22) 3181.8440
C    -8.207401    1.732562   -0.006069   -0.073859    0.132779    0.111716
C    -6.780314    2.175031    0.175851    0.001740    0.004009    0.002902
H    -8.329126    0.765415    0.311395   -0.068409   -0.550249    0.191843
H    -8.477576    1.783343   -0.994123   -0.153548    0.039467   -0.561803
H    -8.990727    2.527884    0.703429    1.076641   -1.086146   -0.969795
O    -6.391899    3.099900    0.845503   -0.000404   -0.001596   -0.001178
O    -5.938413    1.386512   -0.527975    0.000893   -0.000359   -0.000389
H    -5.041403    1.729677   -0.368475   -0.003089   -0.001976   -0.001138
8
* Frequency(22) 3181.8440
C    -8.215795    1.747651    0.006627   -0.073859    0.132779    0.111716
C    -6.780116    2.175487    0.176181    0.001740    0.004009    0.002902
H    -8.336900    0.702882    0.333197   -0.068409   -0.550249    0.191843
H    -8.495026    1.787828   -1.057969   -0.153548    0.039467   -0.561803
H    -8.868373    2.404449    0.593217    1.076641   -1.086146   -0.969795
O    -6.391945    3.099718    0.845370   -0.000404   -0.001596   -0.001178
O    -5.938312    1.386471   -0.528019    0.000893   -0.000359   -0.000389
H    -5.041754    1.729452   -0.368604   -0.003089   -0.001976   -0.001138
