8
* (null), Energy   -1000.0000000
C    -8.215795    1.747651    0.006627   -0.001369   -0.010399    0.010830
C    -6.780116    2.175487    0.176181   -0.039608    0.262795   -0.340153
H    -8.336900    0.702882    0.333197    0.793066   -0.036384    0.242978
H    -8.495026    1.787828   -1.057969   -0.752132   -0.312805    0.202744
H    -8.868373    2.404449    0.593217    0.047408   -0.332909    0.426283
O    -6.391945    3.099718    0.845370    0.014048   -0.073826    0.094096
O    -5.938312    1.386471   -0.528019    0.002809   -0.017389    0.025771
H    -5.041754    1.729452   -0.368604    0.132373   -0.877601    1.149562
8
* Frequency(8)  543.8091
C    -8.215950    1.746470    0.007858   -0.001369   -0.010399    0.010830
C    -6.784617    2.205352    0.137524   -0.039608    0.262795   -0.340153
H    -8.246772    0.698748    0.360810    0.793066   -0.036384    0.242978
H    -8.580502    1.752279   -1.034928   -0.752132   -0.312805    0.202744
H    -8.862985    2.366616    0.641662    0.047408   -0.332909    0.426283
O    -6.390349    3.091328    0.856063    0.014048   -0.073826    0.094096
O    -5.937992    1.384495   -0.525090    0.002809   -0.017389    0.025771
H    -5.026710    1.629718   -0.237963    0.132373   -0.877601    1.149562
8
* Frequency(8)  543.8091
C    -8.216089    1.745416    0.008955   -0.001369   -0.010399    0.010830
C    -6.788630    2.231981    0.103057   -0.039608    0.262795   -0.340153
H    -8.166411    0.695061    0.385431    0.793066   -0.036384    0.242978
H    -8.656716    1.720583   -1.014384   -0.752132   -0.312805    0.202744
H    -8.858181    2.332883    0.684857    0.047408   -0.332909    0.426283
O    -6.388925    3.083848    0.865598    0.014048   -0.073826    0.094096
O    -5.937708    1.382733   -0.522479    0.002809   -0.017389    0.025771
H    -5.013297    1.540791   -0.121478    0.132373   -0.877601    1.149562
8
* Frequency(8)  543.8091
C    -8.216196    1.744605    0.009801   -0.001369   -0.010399    0.010830
C    -6.791721    2.252488    0.076513   -0.039608    0.262795   -0.340153
H    -8.104525    0.692222    0.404392    0.793066   -0.036384    0.242978
H    -8.715407    1.696173   -0.998563   -0.752132   -0.312805    0.202744
H    -8.854482    2.306904    0.718121    0.047408   -0.332909    0.426283
O    -6.387829    3.078087    0.872941    0.014048   -0.073826    0.094096
O    -5.937489    1.381376   -0.520467    0.002809   -0.017389    0.025771
H    -5.002968    1.472308   -0.031773    0.132373   -0.877601    1.149562
8
* Frequency(8)  543.8091
C    -8.216259    1.744123    0.010302   -0.001369   -0.010399    0.010830
C    -6.793554    2.264650    0.060770   -0.039608    0.262795   -0.340153
H    -8.067820    0.690538    0.415637    0.793066   -0.036384    0.242978
H    -8.750217    1.681696   -0.989180   -0.752132   -0.312805    0.202744
H    -8.852287    2.291497    0.737851    0.047408   -0.332909    0.426283
O    -6.387179    3.074670    0.877296    0.014048   -0.073826    0.094096
O    -5.937359    1.380572   -0.519275    0.002809   -0.017389    0.025771
H    -4.996841    1.431691    0.021430    0.132373   -0.877601    1.149562
8
* Frequency(8)  543.8091
C    -8.216272    1.744024    0.010405   -0.001369   -0.010399    0.010830
C    -6.793931    2.267150    0.057534   -0.039608    0.262795   -0.340153
H    -8.060275    0.690191    0.417949    0.793066   -0.036384    0.242978
H    -8.757374    1.678720   -0.987251   -0.752132   -0.312805    0.202744
H    -8.851836    2.288329    0.741906    0.047408   -0.332909    0.426283
O    -6.387045    3.073967    0.878191    0.014048   -0.073826    0.094096
O    -5.937332    1.380406   -0.519030    0.002809   -0.017389    0.025771
H    -4.995582    1.423341    0.032368    0.132373   -0.877601    1.149562
8
* Frequency(8)  543.8091
C    -8.216234    1.744318    0.010099   -0.001369   -0.010399    0.010830
C    -6.792811    2.259718    0.067155   -0.039608    0.262795   -0.340153
H    -8.082706    0.691221    0.411076    0.793066   -0.036384    0.242978
H    -8.736100    1.687567   -0.992985   -0.752132   -0.312805    0.202744
H    -8.853177    2.297745    0.729850    0.047408   -0.332909    0.426283
O    -6.387442    3.076056    0.875529    0.014048   -0.073826    0.094096
O    -5.937411    1.380898   -0.519758    0.002809   -0.017389    0.025771
H    -4.999326    1.448163   -0.000146    0.132373   -0.877601    1.149562
8
* Frequency(8)  543.8091
C    -8.216147    1.744974    0.009416   -0.001369   -0.010399    0.010830
C    -6.790315    2.243157    0.088590   -0.039608    0.262795   -0.340153
H    -8.132683    0.693513    0.395765    0.793066   -0.036384    0.242978
H    -8.688703    1.707279   -1.005762   -0.752132   -0.312805    0.202744
H    -8.856165    2.318724    0.702986    0.047408   -0.332909    0.426283
O    -6.388328    3.080708    0.869600    0.014048   -0.073826    0.094096
O    -5.937588    1.381994   -0.521383    0.002809   -0.017389    0.025771
H    -5.007667    1.503467   -0.072588    0.132373   -0.877601    1.149562
8
* Frequency(8)  543.8091
C    -8.216023    1.745919    0.008431   -0.001369   -0.010399    0.010830
C    -6.786714    2.219263    0.119518   -0.039608    0.262795   -0.340153
H    -8.204790    0.696822    0.373673    0.793066   -0.036384    0.242978
H    -8.620318    1.735720   -1.024195   -0.752132   -0.312805    0.202744
H    -8.860475    2.348993    0.664228    0.047408   -0.332909    0.426283
O    -6.389605    3.087420    0.861044    0.014048   -0.073826    0.094096
O    -5.937844    1.383575   -0.523726    0.002809   -0.017389    0.025771
H    -5.019703    1.583260   -0.177109    0.132373   -0.877601    1.149562
8
* Frequency(8)  543.8091
C    -8.215874    1.747052    0.007251   -0.001369   -0.010399    0.010830
C    -6.782397    2.190626    0.156585   -0.039608    0.262795   -0.340153
H    -8.291213    0.700786    0.347195    0.793066   -0.036384    0.242978
H    -8.538355    1.769808   -1.046289   -0.752132   -0.312805    0.202744
H    -8.865641    2.385271    0.617774    0.047408   -0.332909    0.426283
O    -6.391136    3.095465    0.850790    0.014048   -0.073826    0.094096
O    -5.938150    1.385470   -0.526534    0.002809   -0.017389    0.025771
H    -5.034128    1.678896   -0.302380    0.132373   -0.877601    1.149562
8
* Frequency(8)  543.8091
C    -8.215716    1.748250    0.006003   -0.001369   -0.010399    0.010830
C    -6.777834    2.160347    0.195776   -0.039608    0.262795   -0.340153
H    -8.382587    0.704978    0.319200    0.793066   -0.036384    0.242978
H    -8.451697    1.805848   -1.069648   -0.752132   -0.312805    0.202744
H    -8.871104    2.423628    0.568660    0.047408   -0.332909    0.426283
O    -6.392754    3.103971    0.839949    0.014048   -0.073826    0.094096
O    -5.938473    1.387473   -0.529503    0.002809   -0.017389    0.025771
H    -5.049380    1.780009   -0.434829    0.132373   -0.877601    1.149562
8
* Frequency(8)  543.8091
C    -8.215567    1.749384    0.004823   -0.001369   -0.010399    0.010830
C    -6.773518    2.131710    0.232844   -0.039608    0.262795   -0.340153
H    -8.469010    0.708943    0.292722    0.793066   -0.036384    0.242978
H    -8.369735    1.839936   -1.091742   -0.752132   -0.312805    0.202744
H    -8.876270    2.459906    0.522206    0.047408   -0.332909    0.426283
O    -6.394285    3.112016    0.829695    0.014048   -0.073826    0.094096
O    -5.938779    1.389368   -0.532312    0.002809   -0.017389    0.025771
H    -5.063805    1.875645   -0.560100    0.132373   -0.877601    1.149562
8
* Frequency(8)  543.8091
C    -8.215442    1.750329    0.003839   -0.001369   -0.010399    0.010830
C    -6.769917    2.107816    0.263771   -0.039608    0.262795   -0.340153
H    -8.541117    0.712251    0.270630    0.793066   -0.036384    0.242978
H    -8.301350    1.868376   -1.110176   -0.752132   -0.312805    0.202744
H    -8.880580    2.490175    0.483448    0.047408   -0.332909    0.426283
O    -6.395563    3.118729    0.821140    0.014048   -0.073826    0.094096
O    -5.939035    1.390949   -0.534655    0.002809   -0.017389    0.025771
H    -5.075841    1.955438   -0.664620    0.132373   -0.877601    1.149562
8
* Frequency(8)  543.8091
C    -8.215356    1.750984    0.003156   -0.001369   -0.010399    0.010830
C    -6.767421    2.091255    0.285207   -0.039608    0.262795   -0.340153
H    -8.591094    0.714544    0.255318    0.793066   -0.036384    0.242978
H    -8.253952    1.888089   -1.122952   -0.752132   -0.312805    0.202744
H    -8.883568    2.511154    0.456584    0.047408   -0.332909    0.426283
O    -6.396448    3.123381    0.815210    0.014048   -0.073826    0.094096
O    -5.939212    1.392045   -0.536279    0.002809   -0.017389    0.025771
H    -5.084182    2.010742   -0.737063    0.132373   -0.877601    1.149562
8
* Frequency(8)  543.8091
C    -8.215317    1.751279    0.002850   -0.001369   -0.010399    0.010830
C    -6.766300    2.083823    0.294828   -0.039608    0.262795   -0.340153
H    -8.613525    0.715573    0.248445    0.793066   -0.036384    0.242978
H    -8.232679    1.896936   -1.128687   -0.752132   -0.312805    0.202744
H    -8.884909    2.520570    0.444528    0.047408   -0.332909    0.426283
O    -6.396845    3.125469    0.812548    0.014048   -0.073826    0.094096
O    -5.939291    1.392537   -0.537008    0.002809   -0.017389    0.025771
H    -5.087926    2.035564   -0.769577    0.132373   -0.877601    1.149562
8
* Frequency(8)  543.8091
C    -8.215330    1.751180    0.002953   -0.001369   -0.010399    0.010830
C    -6.766677    2.086323    0.291592   -0.039608    0.262795   -0.340153
H    -8.605979    0.715227    0.250757    0.793066   -0.036384    0.242978
H    -8.239835    1.893960   -1.126758   -0.752132   -0.312805    0.202744
H    -8.884458    2.517402    0.448583    0.047408   -0.332909    0.426283
O    -6.396712    3.124767    0.813444    0.014048   -0.073826    0.094096
O    -5.939264    1.392371   -0.536763    0.002809   -0.017389    0.025771
H    -5.086667    2.027214   -0.758639    0.132373   -0.877601    1.149562
8
* Frequency(8)  543.8091
C    -8.215394    1.750698    0.003454   -0.001369   -0.010399    0.010830
C    -6.768510    2.098486    0.275849   -0.039608    0.262795   -0.340153
H    -8.569275    0.713543    0.262003    0.793066   -0.036384    0.242978
H    -8.274645    1.879483   -1.117374   -0.752132   -0.312805    0.202744
H    -8.882263    2.501994    0.468313    0.047408   -0.332909    0.426283
O    -6.396061    3.121350    0.817799    0.014048   -0.073826    0.094096
O    -5.939135    1.391567   -0.535570    0.002809   -0.017389    0.025771
H    -5.080540    1.986597   -0.705435    0.132373   -0.877601    1.149562
8
* Frequency(8)  543.8091
C    -8.215500    1.749887    0.004299   -0.001369   -0.010399    0.010830
C    -6.771601    2.118992    0.249305   -0.039608    0.262795   -0.340153
H    -8.507389    0.710704    0.280963    0.793066   -0.036384    0.242978
H    -8.333337    1.855073   -1.101554   -0.752132   -0.312805    0.202744
H    -8.878564    2.476016    0.501577    0.047408   -0.332909    0.426283
O    -6.394965    3.115589    0.825141    0.014048   -0.073826    0.094096
O    -5.938915    1.390210   -0.533559    0.002809   -0.017389    0.025771
H    -5.070211    1.918114   -0.615731    0.132373   -0.877601    1.149562
8
* Frequency(8)  543.8091
C    -8.215639    1.748833    0.005397   -0.001369   -0.010399    0.010830
C    -6.775614    2.145621    0.214838   -0.039608    0.262795   -0.340153
H    -8.427028    0.707017    0.305584    0.793066   -0.036384    0.242978
H    -8.409550    1.823377   -1.081010   -0.752132   -0.312805    0.202744
H    -8.873760    2.442283    0.544772    0.047408   -0.332909    0.426283
O    -6.393542    3.108108    0.834676    0.014048   -0.073826    0.094096
O    -5.938631    1.388448   -0.530948    0.002809   -0.017389    0.025771
H    -5.056798    1.829187   -0.499246    0.132373   -0.877601    1.149562
8
* Frequency(8)  543.8091
C    -8.215795    1.747651    0.006627   -0.001369   -0.010399    0.010830
C    -6.780116    2.175487    0.176181   -0.039608    0.262795   -0.340153
H    -8.336900    0.702882    0.333197    0.793066   -0.036384    0.242978
H    -8.495026    1.787828   -1.057969   -0.752132   -0.312805    0.202744
H    -8.868373    2.404449    0.593217    0.047408   -0.332909    0.426283
O    -6.391945    3.099718    0.845370    0.014048   -0.073826    0.094096
O    -5.938312    1.386471   -0.528019    0.002809   -0.017389    0.025771
H    -5.041754    1.729452   -0.368604    0.132373   -0.877601    1.149562
