3
* (null), Energy   -1000.0000000
O    -3.932335   -0.064560    0.020561   -0.099176   -0.095639    0.030459
H    -2.981310    0.057157   -0.018203    1.390132    0.177542   -0.056544
H    -4.056505   -0.971147    0.309292    0.183987    1.340449   -0.426908
3
* Frequency(8) 3959.5389
O    -3.943606   -0.075429    0.024023   -0.099176   -0.095639    0.030459
H    -2.823329    0.077334   -0.024629    1.390132    0.177542   -0.056544
H    -4.035596   -0.818812    0.260776    0.183987    1.340449   -0.426908
3
* Frequency(8) 3959.5389
O    -3.953655   -0.085120    0.027109   -0.099176   -0.095639    0.030459
H    -2.682467    0.095324   -0.030359    1.390132    0.177542   -0.056544
H    -4.016952   -0.682985    0.217518    0.183987    1.340449   -0.426908
3
* Frequency(8) 3959.5389
O    -3.961394   -0.092583    0.029486   -0.099176   -0.095639    0.030459
H    -2.573990    0.109178   -0.034771    1.390132    0.177542   -0.056544
H    -4.002595   -0.578384    0.184205    0.183987    1.340449   -0.426908
3
* Frequency(8) 3959.5389
O    -3.965984   -0.097010    0.030896   -0.099176   -0.095639    0.030459
H    -2.509652    0.117395   -0.037388    1.390132    0.177542   -0.056544
H    -3.994080   -0.516346    0.164447    0.183987    1.340449   -0.426908
3
* Frequency(8) 3959.5389
O    -3.966928   -0.097920    0.031186   -0.099176   -0.095639    0.030459
H    -2.496426    0.119084   -0.037926    1.390132    0.177542   -0.056544
H    -3.992329   -0.503592    0.160385    0.183987    1.340449   -0.426908
3
* Frequency(8) 3959.5389
O    -3.964123   -0.095215    0.030324   -0.099176   -0.095639    0.030459
H    -2.535744    0.114063   -0.036327    1.390132    0.177542   -0.056544
H    -3.997533   -0.541505    0.172459    0.183987    1.340449   -0.426908
3
* Frequency(8) 3959.5389
O    -3.957873   -0.089188    0.028405   -0.099176   -0.095639    0.030459
H    -2.623347    0.102875   -0.032764    1.390132    0.177542   -0.056544
H    -4.009128   -0.625977    0.199362    0.183987    1.340449   -0.426908
3
* Frequency(8) 3959.5389
O    -3.948856   -0.080492    0.025635   -0.099176   -0.095639    0.030459
H    -2.749740    0.086732   -0.027623    1.390132    0.177542   -0.056544
H    -4.025856   -0.747853    0.238177    0.183987    1.340449   -0.426908
3
* Frequency(8) 3959.5389
O    -3.938048   -0.070070    0.022316   -0.099176   -0.095639    0.030459
H    -2.901227    0.067385   -0.021461    1.390132    0.177542   -0.056544
H    -4.045906   -0.893926    0.284699    0.183987    1.340449   -0.426908
3
* Frequency(8) 3959.5389
O    -3.926622   -0.059051    0.018807   -0.099176   -0.095639    0.030459
H    -3.061393    0.046929   -0.014946    1.390132    0.177542   -0.056544
H    -4.067104   -1.048367    0.333886    0.183987    1.340449   -0.426908
3
* Frequency(8) 3959.5389
O    -3.915814   -0.048629    0.015487   -0.099176   -0.095639    0.030459
H    -3.212881    0.027582   -0.008784    1.390132    0.177542   -0.056544
H    -4.087154   -1.194441    0.380407    0.183987    1.340449   -0.426908
3
* Frequency(8) 3959.5389
O    -3.906797   -0.039933    0.012718   -0.099176   -0.095639    0.030459
H    -3.339274    0.011440   -0.003643    1.390132    0.177542   -0.056544
H    -4.103882   -1.316317    0.419222    0.183987    1.340449   -0.426908
3
* Frequency(8) 3959.5389
O    -3.900547   -0.033906    0.010798   -0.099176   -0.095639    0.030459
H    -3.426876    0.000251   -0.000080    1.390132    0.177542   -0.056544
H    -4.115477   -1.400788    0.446125    0.183987    1.340449   -0.426908
3
* Frequency(8) 3959.5389
O    -3.897742   -0.031201    0.009937   -0.099176   -0.095639    0.030459
H    -3.466195   -0.004770    0.001519    1.390132    0.177542   -0.056544
H    -4.120681   -1.438701    0.458200    0.183987    1.340449   -0.426908
3
* Frequency(8) 3959.5389
O    -3.898686   -0.032111    0.010227   -0.099176   -0.095639    0.030459
H    -3.452968   -0.003081    0.000981    1.390132    0.177542   -0.056544
H    -4.118930   -1.425948    0.454138    0.183987    1.340449   -0.426908
3
* Frequency(8) 3959.5389
O    -3.903276   -0.036537    0.011636   -0.099176   -0.095639    0.030459
H    -3.388630    0.005136   -0.001636    1.390132    0.177542   -0.056544
H    -4.110415   -1.363909    0.434380    0.183987    1.340449   -0.426908
3
* Frequency(8) 3959.5389
O    -3.911015   -0.044000    0.014013   -0.099176   -0.095639    0.030459
H    -3.280153    0.018990   -0.006048    1.390132    0.177542   -0.056544
H    -4.096057   -1.259309    0.401067    0.183987    1.340449   -0.426908
3
* Frequency(8) 3959.5389
O    -3.921064   -0.053691    0.017100   -0.099176   -0.095639    0.030459
H    -3.139291    0.036980   -0.011778    1.390132    0.177542   -0.056544
H    -4.077414   -1.123482    0.357808    0.183987    1.340449   -0.426908
3
* Frequency(8) 3959.5389
O    -3.932335   -0.064560    0.020561   -0.099176   -0.095639    0.030459
H    -2.981310    0.057157   -0.018203    1.390132    0.177542   -0.056544
H    -4.056505   -0.971147    0.309292    0.183987    1.340449   -0.426908
