3
* (null), Energy   -1000.0000000
O    -3.932335   -0.064560    0.020561   -0.100630    0.095505   -0.030416
H    -2.981310    0.057157   -0.018203    0.200000   -1.330514    0.423744
H    -4.056505   -0.971147    0.309292    1.397199   -0.185338    0.059027
3
* Frequency(6) 1622.8989
O    -3.943771   -0.053707    0.017105   -0.100630    0.095505   -0.030416
H    -2.958581   -0.094049    0.029953    0.200000   -1.330514    0.423744
H    -3.897720   -0.992209    0.316000    1.397199   -0.185338    0.059027
3
* Frequency(6) 1622.8989
O    -3.953968   -0.044029    0.014023   -0.100630    0.095505   -0.030416
H    -2.938315   -0.228869    0.072891    0.200000   -1.330514    0.423744
H    -3.756143   -1.010990    0.321981    1.397199   -0.185338    0.059027
3
* Frequency(6) 1622.8989
O    -3.961820   -0.036577    0.011649   -0.100630    0.095505   -0.030416
H    -2.922709   -0.332695    0.105957    0.200000   -1.330514    0.423744
H    -3.647114   -1.025452    0.326588    1.397199   -0.185338    0.059027
3
* Frequency(6) 1622.8989
O    -3.966478   -0.032157    0.010241   -0.100630    0.095505   -0.030416
H    -2.913452   -0.394273    0.125569    0.200000   -1.330514    0.423744
H    -3.582449   -1.034030    0.329319    1.397199   -0.185338    0.059027
3
* Frequency(6) 1622.8989
O    -3.967435   -0.031248    0.009952   -0.100630    0.095505   -0.030416
H    -2.911549   -0.406932    0.129600    0.200000   -1.330514    0.423744
H    -3.569155   -1.035794    0.329881    1.397199   -0.185338    0.059027
3
* Frequency(6) 1622.8989
O    -3.964589   -0.033949    0.010812   -0.100630    0.095505   -0.030416
H    -2.917206   -0.369300    0.117615    0.200000   -1.330514    0.423744
H    -3.608674   -1.030551    0.328212    1.397199   -0.185338    0.059027
3
* Frequency(6) 1622.8989
O    -3.958247   -0.039968    0.012729   -0.100630    0.095505   -0.030416
H    -2.929810   -0.285455    0.090912    0.200000   -1.330514    0.423744
H    -3.696721   -1.018872    0.324492    1.397199   -0.185338    0.059027
3
* Frequency(6) 1622.8989
O    -3.949098   -0.048651    0.015494   -0.100630    0.095505   -0.030416
H    -2.947994   -0.164482    0.052384    0.200000   -1.330514    0.423744
H    -3.823757   -1.002021    0.319125    1.397199   -0.185338    0.059027
3
* Frequency(6) 1622.8989
O    -3.938132   -0.059059    0.018809   -0.100630    0.095505   -0.030416
H    -2.969789   -0.019491    0.006208    0.200000   -1.330514    0.423744
H    -3.976015   -0.981824    0.312693    1.397199   -0.185338    0.059027
3
* Frequency(6) 1622.8989
O    -3.926538   -0.070062    0.022314   -0.100630    0.095505   -0.030416
H    -2.992832    0.133806   -0.042615    0.200000   -1.330514    0.423744
H    -4.136995   -0.960470    0.305892    1.397199   -0.185338    0.059027
3
* Frequency(6) 1622.8989
O    -3.915572   -0.080470    0.025628   -0.100630    0.095505   -0.030416
H    -3.014626    0.278796   -0.088791    0.200000   -1.330514    0.423744
H    -4.289253   -0.940273    0.299459    1.397199   -0.185338    0.059027
3
* Frequency(6) 1622.8989
O    -3.906422   -0.089153    0.028394   -0.100630    0.095505   -0.030416
H    -3.032811    0.399769   -0.127319    0.200000   -1.330514    0.423744
H    -4.416288   -0.923422    0.294093    1.397199   -0.185338    0.059027
3
* Frequency(6) 1622.8989
O    -3.900081   -0.095172    0.030310   -0.100630    0.095505   -0.030416
H    -3.045414    0.483614   -0.154022    0.200000   -1.330514    0.423744
H    -4.504336   -0.911742    0.290373    1.397199   -0.185338    0.059027
3
* Frequency(6) 1622.8989
O    -3.897235   -0.097873    0.031171   -0.100630    0.095505   -0.030416
H    -3.051071    0.521247   -0.166007    0.200000   -1.330514    0.423744
H    -4.543854   -0.906500    0.288703    1.397199   -0.185338    0.059027
3
* Frequency(6) 1622.8989
O    -3.898192   -0.096964    0.030881   -0.100630    0.095505   -0.030416
H    -3.049168    0.508587   -0.161976    0.200000   -1.330514    0.423744
H    -4.530561   -0.908263    0.289265    1.397199   -0.185338    0.059027
3
* Frequency(6) 1622.8989
O    -3.902850   -0.092544    0.029474   -0.100630    0.095505   -0.030416
H    -3.039912    0.447009   -0.142364    0.200000   -1.330514    0.423744
H    -4.465896   -0.916841    0.291997    1.397199   -0.185338    0.059027
3
* Frequency(6) 1622.8989
O    -3.910702   -0.085091    0.027100   -0.100630    0.095505   -0.030416
H    -3.024305    0.343184   -0.109298    0.200000   -1.330514    0.423744
H    -4.356867   -0.931304    0.296603    1.397199   -0.185338    0.059027
3
* Frequency(6) 1622.8989
O    -3.920899   -0.075414    0.024018   -0.100630    0.095505   -0.030416
H    -3.004039    0.208363   -0.066360    0.200000   -1.330514    0.423744
H    -4.215289   -0.950084    0.302584    1.397199   -0.185338    0.059027
3
* Frequency(6) 1622.8989
O    -3.932335   -0.064560    0.020561   -0.100630    0.095505   -0.030416
H    -2.981310    0.057157   -0.018203    0.200000   -1.330514    0.423744
H    -4.056505   -0.971147    0.309292    1.397199   -0.185338    0.059027
