10
* (null), Energy   -1000.0000000
C    -2.088921   -1.629462   -0.035933    0.042845   -0.019080    0.066795
C    -0.801078   -0.841472   -0.094282   -0.001239    0.014123   -0.000854
H    -2.944179   -0.947511   -0.119139   -0.225539   -0.437265   -0.730317
H    -2.154936   -2.200320    0.904047    0.286206    0.301697    0.252812
H    -2.122997   -2.363918   -0.857226   -0.608057    0.593170   -0.460189
C     0.477054   -1.628132    0.080633   -0.046246   -0.040176   -0.056083
H     0.500986   -2.094439    1.078821    0.606379    0.740065    0.296958
H     1.340724   -0.961139   -0.032584    0.241252   -0.248749    0.801855
H     0.536939   -2.446917   -0.653996   -0.247280    0.262886   -0.376663
O    -0.793721    0.352600   -0.270341    0.000147   -0.042465    0.006179
10
* Frequency(20) 1433.6391
C    -2.084052   -1.631630   -0.028342    0.042845   -0.019080    0.066795
C    -0.801219   -0.839867   -0.094379   -0.001239    0.014123   -0.000854
H    -2.969810   -0.997204   -0.202136   -0.225539   -0.437265   -0.730317
H    -2.122410   -2.166034    0.932778    0.286206    0.301697    0.252812
H    -2.192100   -2.296508   -0.909524   -0.608057    0.593170   -0.460189
C     0.471798   -1.632698    0.074260   -0.046246   -0.040176   -0.056083
H     0.569898   -2.010335    1.112569    0.606379    0.740065    0.296958
H     1.368141   -0.989408    0.058543    0.241252   -0.248749    0.801855
H     0.508837   -2.417041   -0.696802   -0.247280    0.262886   -0.376663
O    -0.793704    0.347774   -0.269639    0.000147   -0.042465    0.006179
10
* Frequency(20) 1433.6391
C    -2.079711   -1.633564   -0.021574    0.042845   -0.019080    0.066795
C    -0.801345   -0.838436   -0.094465   -0.001239    0.014123   -0.000854
H    -2.992664   -1.041512   -0.276139   -0.225539   -0.437265   -0.730317
H    -2.093409   -2.135463    0.958395    0.286206    0.301697    0.252812
H    -2.253714   -2.236402   -0.956155   -0.608057    0.593170   -0.460189
C     0.467112   -1.636769    0.068577   -0.046246   -0.040176   -0.056083
H     0.631342   -1.935344    1.142660    0.606379    0.740065    0.296958
H     1.392587   -1.014613    0.139794    0.241252   -0.248749    0.801855
H     0.483780   -2.390403   -0.734969   -0.247280    0.262886   -0.376663
O    -0.793689    0.343471   -0.269013    0.000147   -0.042465    0.006179
10
* Frequency(20) 1433.6391
C    -2.076367   -1.635052   -0.016362    0.042845   -0.019080    0.066795
C    -0.801441   -0.837334   -0.094532   -0.001239    0.014123   -0.000854
H    -3.010264   -1.075633   -0.333128   -0.225539   -0.437265   -0.730317
H    -2.071075   -2.111921    0.978123    0.286206    0.301697    0.252812
H    -2.301163   -2.190115   -0.992065   -0.608057    0.593170   -0.460189
C     0.463503   -1.639904    0.064200   -0.046246   -0.040176   -0.056083
H     0.678660   -1.877594    1.165832    0.606379    0.740065    0.296958
H     1.411413   -1.034024    0.202366    0.241252   -0.248749    0.801855
H     0.464484   -2.369889   -0.764362   -0.247280    0.262886   -0.376663
O    -0.793678    0.340158   -0.268531    0.000147   -0.042465    0.006179
10
* Frequency(20) 1433.6391
C    -2.074384   -1.635935   -0.013270    0.042845   -0.019080    0.066795
C    -0.801499   -0.836681   -0.094571   -0.001239    0.014123   -0.000854
H    -3.020702   -1.095871   -0.366928   -0.225539   -0.437265   -0.730317
H    -2.057829   -2.097958    0.989823    0.286206    0.301697    0.252812
H    -2.329305   -2.162662   -1.013364   -0.608057    0.593170   -0.460189
C     0.461363   -1.641764    0.061605   -0.046246   -0.040176   -0.056083
H     0.706725   -1.843342    1.179576    0.606379    0.740065    0.296958
H     1.422579   -1.045537    0.239477    0.241252   -0.248749    0.801855
H     0.453039   -2.357722   -0.781794   -0.247280    0.262886   -0.376663
O    -0.793671    0.338192   -0.268245    0.000147   -0.042465    0.006179
10
* Frequency(20) 1433.6391
C    -2.073977   -1.636117   -0.012635    0.042845   -0.019080    0.066795
C    -0.801511   -0.836546   -0.094580   -0.001239    0.014123   -0.000854
H    -3.022848   -1.100031   -0.373877   -0.225539   -0.437265   -0.730317
H    -2.055106   -2.095087    0.992229    0.286206    0.301697    0.252812
H    -2.335091   -2.157018   -1.017742   -0.608057    0.593170   -0.460189
C     0.460923   -1.642146    0.061071   -0.046246   -0.040176   -0.056083
H     0.712494   -1.836301    1.182402    0.606379    0.740065    0.296958
H     1.424874   -1.047904    0.247107    0.241252   -0.248749    0.801855
H     0.450686   -2.355221   -0.785378   -0.247280    0.262886   -0.376663
O    -0.793669    0.337788   -0.268186    0.000147   -0.042465    0.006179
10
* Frequency(20) 1433.6391
C    -2.075188   -1.635577   -0.014524    0.042845   -0.019080    0.066795
C    -0.801476   -0.836946   -0.094555   -0.001239    0.014123   -0.000854
H    -3.016469   -1.087664   -0.353221   -0.225539   -0.437265   -0.730317
H    -2.063201   -2.103620    0.985078    0.286206    0.301697    0.252812
H    -2.317892   -2.173795   -1.004726   -0.608057    0.593170   -0.460189
C     0.462231   -1.641009    0.062657   -0.046246   -0.040176   -0.056083
H     0.695343   -1.857233    1.174003    0.606379    0.740065    0.296958
H     1.418051   -1.040868    0.224427    0.241252   -0.248749    0.801855
H     0.457681   -2.362656   -0.774724   -0.247280    0.262886   -0.376663
O    -0.793674    0.338989   -0.268360    0.000147   -0.042465    0.006179
10
* Frequency(20) 1433.6391
C    -2.077888   -1.634375   -0.018733    0.042845   -0.019080    0.066795
C    -0.801397   -0.837836   -0.094502   -0.001239    0.014123   -0.000854
H    -3.002256   -1.060108   -0.307198   -0.225539   -0.437265   -0.730317
H    -2.081237   -2.122632    0.969147    0.286206    0.301697    0.252812
H    -2.279574   -2.211175   -0.975726   -0.608057    0.593170   -0.460189
C     0.465145   -1.638478    0.066192   -0.046246   -0.040176   -0.056083
H     0.657131   -1.903870    1.155289    0.606379    0.740065    0.296958
H     1.402847   -1.025192    0.173896    0.241252   -0.248749    0.801855
H     0.473263   -2.379223   -0.750988   -0.247280    0.262886   -0.376663
O    -0.793683    0.341665   -0.268750    0.000147   -0.042465    0.006179
10
* Frequency(20) 1433.6391
C    -2.081784   -1.632640   -0.024806    0.042845   -0.019080    0.066795
C    -0.801285   -0.839120   -0.094424   -0.001239    0.014123   -0.000854
H    -2.981750   -1.020351   -0.240796   -0.225539   -0.437265   -0.730317
H    -2.107259   -2.150063    0.946161    0.286206    0.301697    0.252812
H    -2.224289   -2.265107   -0.933885   -0.608057    0.593170   -0.460189
C     0.469350   -1.634825    0.071291   -0.046246   -0.040176   -0.056083
H     0.601998   -1.971158    1.128289    0.606379    0.740065    0.296958
H     1.380912   -1.002576    0.100990    0.241252   -0.248749    0.801855
H     0.495747   -2.403125   -0.716741   -0.247280    0.262886   -0.376663
O    -0.793696    0.345526   -0.269312    0.000147   -0.042465    0.006179
10
* Frequency(20) 1433.6391
C    -2.086453   -1.630561   -0.032085    0.042845   -0.019080    0.066795
C    -0.801150   -0.840659   -0.094331   -0.001239    0.014123   -0.000854
H    -2.957172   -0.972701   -0.161211   -0.225539   -0.437265   -0.730317
H    -2.138448   -2.182940    0.918611    0.286206    0.301697    0.252812
H    -2.158026   -2.329747   -0.883737   -0.608057    0.593170   -0.460189
C     0.474390   -1.630447    0.077402   -0.046246   -0.040176   -0.056083
H     0.535918   -2.051805    1.095928    0.606379    0.740065    0.296958
H     1.354622   -0.975469    0.013609    0.241252   -0.248749    0.801855
H     0.522694   -2.431772   -0.675695   -0.247280    0.262886   -0.376663
O    -0.793712    0.350154   -0.269985    0.000147   -0.042465    0.006179
10
* Frequency(20) 1433.6391
C    -2.091390   -1.628363   -0.039781    0.042845   -0.019080    0.066795
C    -0.801007   -0.842286   -0.094233   -0.001239    0.014123   -0.000854
H    -2.931186   -0.922321   -0.077067   -0.225539   -0.437265   -0.730317
H    -2.171424   -2.217700    0.889483    0.286206    0.301697    0.252812
H    -2.087968   -2.398090   -0.830715   -0.608057    0.593170   -0.460189
C     0.479718   -1.625818    0.083864   -0.046246   -0.040176   -0.056083
H     0.466054   -2.137073    1.061714    0.606379    0.740065    0.296958
H     1.326826   -0.946809   -0.078777    0.241252   -0.248749    0.801855
H     0.551184   -2.462061   -0.632297   -0.247280    0.262886   -0.376663
O    -0.793729    0.355046   -0.270697    0.000147   -0.042465    0.006179
10
* Frequency(20) 1433.6391
C    -2.096059   -1.626283   -0.047060    0.042845   -0.019080    0.066795
C    -0.800872   -0.843825   -0.094140   -0.001239    0.014123   -0.000854
H    -2.906608   -0.874671    0.002518   -0.225539   -0.437265   -0.730317
H    -2.202613   -2.250577    0.861933    0.286206    0.301697    0.252812
H    -2.021706   -2.462729   -0.780567   -0.608057    0.593170   -0.460189
C     0.484758   -1.621439    0.089976   -0.046246   -0.040176   -0.056083
H     0.399974   -2.217720    1.029353    0.606379    0.740065    0.296958
H     1.300536   -0.919702   -0.166158    0.241252   -0.248749    0.801855
H     0.578131   -2.490709   -0.591251   -0.247280    0.262886   -0.376663
O    -0.793745    0.359674   -0.271371    0.000147   -0.042465    0.006179
10
* Frequency(20) 1433.6391
C    -2.099954   -1.624549   -0.053133    0.042845   -0.019080    0.066795
C    -0.800759   -0.845109   -0.094062   -0.001239    0.014123   -0.000854
H    -2.886102   -0.834914    0.068920   -0.225539   -0.437265   -0.730317
H    -2.228635   -2.278008    0.838947    0.286206    0.301697    0.252812
H    -1.966421   -2.516661   -0.738726   -0.608057    0.593170   -0.460189
C     0.488962   -1.617787    0.095075   -0.046246   -0.040176   -0.056083
H     0.344841   -2.285008    1.002354    0.606379    0.740065    0.296958
H     1.278601   -0.897085   -0.239064    0.241252   -0.248749    0.801855
H     0.600614   -2.514611   -0.557004   -0.247280    0.262886   -0.376663
O    -0.793758    0.363535   -0.271932    0.000147   -0.042465    0.006179
10
* Frequency(20) 1433.6391
C    -2.102654   -1.623346   -0.057342    0.042845   -0.019080    0.066795
C    -0.800681   -0.845999   -0.094008   -0.001239    0.014123   -0.000854
H    -2.871889   -0.807358    0.114943   -0.225539   -0.437265   -0.730317
H    -2.246671   -2.297020    0.823016    0.286206    0.301697    0.252812
H    -1.928103   -2.554041   -0.709726   -0.608057    0.593170   -0.460189
C     0.491877   -1.615255    0.098609   -0.046246   -0.040176   -0.056083
H     0.306629   -2.331645    0.983640    0.606379    0.740065    0.296958
H     1.263398   -0.881409   -0.289595    0.241252   -0.248749    0.801855
H     0.616197   -2.531177   -0.533268   -0.247280    0.262886   -0.376663
O    -0.793768    0.366211   -0.272322    0.000147   -0.042465    0.006179
10
* Frequency(20) 1433.6391
C    -2.103866   -1.622807   -0.059232    0.042845   -0.019080    0.066795
C    -0.800646   -0.846398   -0.093984   -0.001239    0.014123   -0.000854
H    -2.865510   -0.794991    0.135599   -0.225539   -0.437265   -0.730317
H    -2.254766   -2.305553    0.815865    0.286206    0.301697    0.252812
H    -1.910904   -2.570819   -0.696710   -0.608057    0.593170   -0.460189
C     0.493185   -1.614118    0.100195   -0.046246   -0.040176   -0.056083
H     0.289478   -2.352577    0.975241    0.606379    0.740065    0.296958
H     1.256574   -0.874374   -0.312275    0.241252   -0.248749    0.801855
H     0.623191   -2.538613   -0.522614   -0.247280    0.262886   -0.376663
O    -0.793772    0.367412   -0.272497    0.000147   -0.042465    0.006179
10
* Frequency(20) 1433.6391
C    -2.103458   -1.622988   -0.058596    0.042845   -0.019080    0.066795
C    -0.800658   -0.846264   -0.093992   -0.001239    0.014123   -0.000854
H    -2.867656   -0.799151    0.128650   -0.225539   -0.437265   -0.730317
H    -2.252043   -2.302683    0.818270    0.286206    0.301697    0.252812
H    -1.916690   -2.565175   -0.701088   -0.608057    0.593170   -0.460189
C     0.492745   -1.614501    0.099662   -0.046246   -0.040176   -0.056083
H     0.295248   -2.345536    0.978066    0.606379    0.740065    0.296958
H     1.258870   -0.876740   -0.304645    0.241252   -0.248749    0.801855
H     0.620838   -2.536111   -0.526198   -0.247280    0.262886   -0.376663
O    -0.793770    0.367008   -0.272438    0.000147   -0.042465    0.006179
10
* Frequency(20) 1433.6391
C    -2.101475   -1.623871   -0.055505    0.042845   -0.019080    0.066795
C    -0.800715   -0.845610   -0.094032   -0.001239    0.014123   -0.000854
H    -2.878094   -0.819389    0.094850   -0.225539   -0.437265   -0.730317
H    -2.238797   -2.288720    0.829971    0.286206    0.301697    0.252812
H    -1.944832   -2.537722   -0.722387   -0.608057    0.593170   -0.460189
C     0.490604   -1.616360    0.097066   -0.046246   -0.040176   -0.056083
H     0.323312   -2.311284    0.991810    0.606379    0.740065    0.296958
H     1.270035   -0.888253   -0.267534    0.241252   -0.248749    0.801855
H     0.609394   -2.523944   -0.543631   -0.247280    0.262886   -0.376663
O    -0.793764    0.365043   -0.272152    0.000147   -0.042465    0.006179
10
* Frequency(20) 1433.6391
C    -2.098132   -1.625360   -0.050292    0.042845   -0.019080    0.066795
C    -0.800812   -0.844508   -0.094098   -0.001239    0.014123   -0.000854
H    -2.895694   -0.853510    0.037861   -0.225539   -0.437265   -0.730317
H    -2.216463   -2.265177    0.849699    0.286206    0.301697    0.252812
H    -1.992281   -2.491435   -0.758297   -0.608057    0.593170   -0.460189
C     0.486996   -1.619495    0.092690   -0.046246   -0.040176   -0.056083
H     0.370630   -2.253534    1.014983    0.606379    0.740065    0.296958
H     1.288861   -0.907664   -0.204962    0.241252   -0.248749    0.801855
H     0.590098   -2.503430   -0.573023   -0.247280    0.262886   -0.376663
O    -0.793752    0.361729   -0.271670    0.000147   -0.042465    0.006179
10
* Frequency(20) 1433.6391
C    -2.093790   -1.627293   -0.043524    0.042845   -0.019080    0.066795
C    -0.800938   -0.843077   -0.094185   -0.001239    0.014123   -0.000854
H    -2.918548   -0.897818   -0.036142   -0.225539   -0.437265   -0.730317
H    -2.187462   -2.234607    0.875316    0.286206    0.301697    0.252812
H    -2.053895   -2.431329   -0.804928   -0.608057    0.593170   -0.460189
C     0.482309   -1.623566    0.087007   -0.046246   -0.040176   -0.056083
H     0.432074   -2.178544    1.045073    0.606379    0.740065    0.296958
H     1.313307   -0.932870   -0.123711    0.241252   -0.248749    0.801855
H     0.565041   -2.476792   -0.611190   -0.247280    0.262886   -0.376663
O    -0.793737    0.357426   -0.271043    0.000147   -0.042465    0.006179
10
* Frequency(20) 1433.6391
C    -2.088921   -1.629462   -0.035933    0.042845   -0.019080    0.066795
C    -0.801078   -0.841472   -0.094282   -0.001239    0.014123   -0.000854
H    -2.944179   -0.947511   -0.119139   -0.225539   -0.437265   -0.730317
H    -2.154936   -2.200320    0.904047    0.286206    0.301697    0.252812
H    -2.122997   -2.363918   -0.857226   -0.608057    0.593170   -0.460189
C     0.477054   -1.628132    0.080633   -0.046246   -0.040176   -0.056083
H     0.500986   -2.094439    1.078821    0.606379    0.740065    0.296958
H     1.340724   -0.961139   -0.032584    0.241252   -0.248749    0.801855
H     0.536939   -2.446917   -0.653996   -0.247280    0.262886   -0.376663
O    -0.793721    0.352600   -0.270341    0.000147   -0.042465    0.006179
