10
* (null), Energy   -1000.0000000
C    -2.088921   -1.629462   -0.035933   -0.099838    0.133504   -0.019945
C    -0.801078   -0.841472   -0.094282   -0.000124    0.006009   -0.000853
H    -2.944179   -0.947511   -0.119139    1.243863   -0.994780    0.120408
H    -2.154936   -2.200320    0.904047   -0.042221   -0.289914    0.507061
H    -2.122997   -2.363918   -0.857226   -0.023611   -0.324774   -0.388049
C     0.477054   -1.628132    0.080633    0.051385    0.067499   -0.010004
H     0.500986   -2.094439    1.078821    0.010503   -0.106080    0.247188
H     1.340724   -0.961139   -0.032584   -0.633055   -0.490144    0.083754
H     0.536939   -2.446917   -0.653996    0.021076   -0.221354   -0.209060
O    -0.793721    0.352600   -0.270341    0.000144   -0.002498    0.000361
10
* Frequency(29) 3197.7869
C    -2.100267   -1.614290   -0.038200   -0.099838    0.133504   -0.019945
C    -0.801093   -0.840789   -0.094379   -0.000124    0.006009   -0.000853
H    -2.802821   -1.060563   -0.105455    1.243863   -0.994780    0.120408
H    -2.159734   -2.233267    0.961672   -0.042221   -0.289914    0.507061
H    -2.125681   -2.400827   -0.901326   -0.023611   -0.324774   -0.388049
C     0.482893   -1.620461    0.079496    0.051385    0.067499   -0.010004
H     0.502180   -2.106495    1.106913    0.010503   -0.106080    0.247188
H     1.268781   -1.016841   -0.023066   -0.633055   -0.490144    0.083754
H     0.539334   -2.472072   -0.677755    0.021076   -0.221354   -0.209060
O    -0.793704    0.352316   -0.270300    0.000144   -0.002498    0.000361
10
* Frequency(29) 3197.7869
C    -2.110384   -1.600762   -0.040221   -0.099838    0.133504   -0.019945
C    -0.801105   -0.840180   -0.094465   -0.000124    0.006009   -0.000853
H    -2.676780   -1.161363   -0.093254    1.243863   -0.994780    0.120408
H    -2.164012   -2.262644    1.013052   -0.042221   -0.289914    0.507061
H    -2.128073   -2.433736   -0.940647   -0.023611   -0.324774   -0.388049
C     0.488100   -1.613622    0.078483    0.051385    0.067499   -0.010004
H     0.503244   -2.117244    1.131960    0.010503   -0.106080    0.247188
H     1.204633   -1.066507   -0.014579   -0.633055   -0.490144    0.083754
H     0.541470   -2.494502   -0.698939    0.021076   -0.221354   -0.209060
O    -0.793690    0.352063   -0.270264    0.000144   -0.002498    0.000361
10
* Frequency(29) 3197.7869
C    -2.118175   -1.590344   -0.041777   -0.099838    0.133504   -0.019945
C    -0.801115   -0.839712   -0.094532   -0.000124    0.006009   -0.000853
H    -2.579717   -1.238990   -0.083858    1.243863   -0.994780    0.120408
H    -2.167307   -2.285267    1.052620   -0.042221   -0.289914    0.507061
H    -2.129916   -2.459080   -0.970928   -0.023611   -0.324774   -0.388049
C     0.492110   -1.608354    0.077702    0.051385    0.067499   -0.010004
H     0.504064   -2.125521    1.151249    0.010503   -0.106080    0.247188
H     1.155234   -1.104755   -0.008043   -0.633055   -0.490144    0.083754
H     0.543114   -2.511775   -0.715253    0.021076   -0.221354   -0.209060
O    -0.793678    0.351868   -0.270235    0.000144   -0.002498    0.000361
10
* Frequency(29) 3197.7869
C    -2.122796   -1.584165   -0.042700   -0.099838    0.133504   -0.019945
C    -0.801121   -0.839433   -0.094571   -0.000124    0.006009   -0.000853
H    -2.522149   -1.285030   -0.078286    1.243863   -0.994780    0.120408
H    -2.169261   -2.298685    1.076088   -0.042221   -0.289914    0.507061
H    -2.131008   -2.474111   -0.988887   -0.023611   -0.324774   -0.388049
C     0.494488   -1.605230    0.077239    0.051385    0.067499   -0.010004
H     0.504550   -2.130431    1.162690    0.010503   -0.106080    0.247188
H     1.125935   -1.127440   -0.004167   -0.633055   -0.490144    0.083754
H     0.544090   -2.522020   -0.724928    0.021076   -0.221354   -0.209060
O    -0.793672    0.351753   -0.270219    0.000144   -0.002498    0.000361
10
* Frequency(29) 3197.7869
C    -2.123745   -1.582895   -0.042890   -0.099838    0.133504   -0.019945
C    -0.801122   -0.839376   -0.094579   -0.000124    0.006009   -0.000853
H    -2.510314   -1.294495   -0.077140    1.243863   -0.994780    0.120408
H    -2.169663   -2.301444    1.080912   -0.042221   -0.289914    0.507061
H    -2.131233   -2.477201   -0.992579   -0.023611   -0.324774   -0.388049
C     0.494977   -1.604588    0.077144    0.051385    0.067499   -0.010004
H     0.504650   -2.131440    1.165042    0.010503   -0.106080    0.247188
H     1.119912   -1.132103   -0.003370   -0.633055   -0.490144    0.083754
H     0.544290   -2.524126   -0.726917    0.021076   -0.221354   -0.209060
O    -0.793670    0.351729   -0.270215    0.000144   -0.002498    0.000361
10
* Frequency(29) 3197.7869
C    -2.120922   -1.586671   -0.042326   -0.099838    0.133504   -0.019945
C    -0.801118   -0.839546   -0.094555   -0.000124    0.006009   -0.000853
H    -2.545495   -1.266359   -0.080546    1.243863   -0.994780    0.120408
H    -2.168469   -2.293244    1.066571   -0.042221   -0.289914    0.507061
H    -2.130565   -2.468015   -0.981604   -0.023611   -0.324774   -0.388049
C     0.493524   -1.606497    0.077427    0.051385    0.067499   -0.010004
H     0.504353   -2.128440    1.158050    0.010503   -0.106080    0.247188
H     1.137817   -1.118240   -0.005739   -0.633055   -0.490144    0.083754
H     0.543694   -2.517865   -0.721004    0.021076   -0.221354   -0.209060
O    -0.793674    0.351800   -0.270226    0.000144   -0.002498    0.000361
10
* Frequency(29) 3197.7869
C    -2.114630   -1.595084   -0.041069   -0.099838    0.133504   -0.019945
C    -0.801110   -0.839925   -0.094501   -0.000124    0.006009   -0.000853
H    -2.623880   -1.203670   -0.088134    1.243863   -0.994780    0.120408
H    -2.165808   -2.274974    1.034617   -0.042221   -0.289914    0.507061
H    -2.129077   -2.447549   -0.957150   -0.023611   -0.324774   -0.388049
C     0.490286   -1.610751    0.078057    0.051385    0.067499   -0.010004
H     0.503691   -2.121755    1.142473    0.010503   -0.106080    0.247188
H     1.177710   -1.087352   -0.011017   -0.633055   -0.490144    0.083754
H     0.542366   -2.503916   -0.707830    0.021076   -0.221354   -0.209060
O    -0.793684    0.351957   -0.270248    0.000144   -0.002498    0.000361
10
* Frequency(29) 3197.7869
C    -2.105553   -1.607222   -0.039256   -0.099838    0.133504   -0.019945
C    -0.801099   -0.840471   -0.094424   -0.000124    0.006009   -0.000853
H    -2.736974   -1.113223   -0.099081    1.243863   -0.994780    0.120408
H    -2.161969   -2.248615    0.988514   -0.042221   -0.289914    0.507061
H    -2.126931   -2.418020   -0.921868   -0.023611   -0.324774   -0.388049
C     0.485614   -1.616888    0.078967    0.051385    0.067499   -0.010004
H     0.502736   -2.112110    1.119998    0.010503   -0.106080    0.247188
H     1.235269   -1.042788   -0.018632   -0.633055   -0.490144    0.083754
H     0.540450   -2.483790   -0.688822    0.021076   -0.221354   -0.209060
O    -0.793697    0.352184   -0.270281    0.000144   -0.002498    0.000361
10
* Frequency(29) 3197.7869
C    -2.094673   -1.621771   -0.037082   -0.099838    0.133504   -0.019945
C    -0.801086   -0.841126   -0.094331   -0.000124    0.006009   -0.000853
H    -2.872522   -1.004818   -0.112203    1.243863   -0.994780    0.120408
H    -2.157368   -2.217022    0.933258   -0.042221   -0.289914    0.507061
H    -2.124358   -2.382628   -0.879581   -0.023611   -0.324774   -0.388049
C     0.480014   -1.624244    0.080057    0.051385    0.067499   -0.010004
H     0.501591   -2.100550    1.093061    0.010503   -0.106080    0.247188
H     1.304255   -0.989375   -0.027759   -0.633055   -0.490144    0.083754
H     0.538153   -2.459668   -0.666040    0.021076   -0.221354   -0.209060
O    -0.793712    0.352456   -0.270320    0.000144   -0.002498    0.000361
10
* Frequency(29) 3197.7869
C    -2.083170   -1.637153   -0.034784   -0.099838    0.133504   -0.019945
C    -0.801071   -0.841818   -0.094233   -0.000124    0.006009   -0.000853
H    -3.015836   -0.890204   -0.126075    1.243863   -0.994780    0.120408
H    -2.152504   -2.183619    0.874836   -0.042221   -0.289914    0.507061
H    -2.121637   -2.345209   -0.834871   -0.023611   -0.324774   -0.388049
C     0.474094   -1.632021    0.081210    0.051385    0.067499   -0.010004
H     0.500381   -2.088328    1.064581    0.010503   -0.106080    0.247188
H     1.377193   -0.932902   -0.037409   -0.633055   -0.490144    0.083754
H     0.535725   -2.434165   -0.641953    0.021076   -0.221354   -0.209060
O    -0.793729    0.352744   -0.270362    0.000144   -0.002498    0.000361
10
* Frequency(29) 3197.7869
C    -2.072290   -1.651701   -0.032611   -0.099838    0.133504   -0.019945
C    -0.801058   -0.842473   -0.094140   -0.000124    0.006009   -0.000853
H    -3.151384   -0.781799   -0.139197    1.243863   -0.994780    0.120408
H    -2.147903   -2.152026    0.819580   -0.042221   -0.289914    0.507061
H    -2.119064   -2.309817   -0.792584   -0.023611   -0.324774   -0.388049
C     0.468494   -1.639376    0.082300    0.051385    0.067499   -0.010004
H     0.499236   -2.076768    1.037644    0.010503   -0.106080    0.247188
H     1.446179   -0.879490   -0.046536   -0.633055   -0.490144    0.083754
H     0.533428   -2.410043   -0.619171    0.021076   -0.221354   -0.209060
O    -0.793745    0.353016   -0.270401    0.000144   -0.002498    0.000361
10
* Frequency(29) 3197.7869
C    -2.063213   -1.663840   -0.030797   -0.099838    0.133504   -0.019945
C    -0.801046   -0.843020   -0.094062   -0.000124    0.006009   -0.000853
H    -3.264478   -0.691352   -0.150144    1.243863   -0.994780    0.120408
H    -2.144064   -2.125666    0.773477   -0.042221   -0.289914    0.507061
H    -2.116918   -2.280288   -0.757302   -0.023611   -0.324774   -0.388049
C     0.463822   -1.645513    0.083209    0.051385    0.067499   -0.010004
H     0.498282   -2.067123    1.015169    0.010503   -0.106080    0.247188
H     1.503738   -0.834925   -0.054151   -0.633055   -0.490144    0.083754
H     0.531512   -2.389917   -0.600162    0.021076   -0.221354   -0.209060
O    -0.793758    0.353243   -0.270434    0.000144   -0.002498    0.000361
10
* Frequency(29) 3197.7869
C    -2.056921   -1.672253   -0.029540   -0.099838    0.133504   -0.019945
C    -0.801039   -0.843398   -0.094009   -0.000124    0.006009   -0.000853
H    -3.342863   -0.628663   -0.157732    1.243863   -0.994780    0.120408
H    -2.141404   -2.107397    0.741523   -0.042221   -0.289914    0.507061
H    -2.115430   -2.259821   -0.732848   -0.023611   -0.324774   -0.388049
C     0.460584   -1.649767    0.083840    0.051385    0.067499   -0.010004
H     0.497620   -2.060438    0.999592    0.010503   -0.106080    0.247188
H     1.543631   -0.804037   -0.059429   -0.633055   -0.490144    0.083754
H     0.530184   -2.375968   -0.586988    0.021076   -0.221354   -0.209060
O    -0.793767    0.353401   -0.270457    0.000144   -0.002498    0.000361
10
* Frequency(29) 3197.7869
C    -2.054097   -1.676029   -0.028976   -0.099838    0.133504   -0.019945
C    -0.801035   -0.843568   -0.093984   -0.000124    0.006009   -0.000853
H    -3.378044   -0.600527   -0.161138    1.243863   -0.994780    0.120408
H    -2.140209   -2.099197    0.727182   -0.042221   -0.289914    0.507061
H    -2.114762   -2.250635   -0.721873   -0.023611   -0.324774   -0.388049
C     0.459130   -1.651676    0.084123    0.051385    0.067499   -0.010004
H     0.497323   -2.057438    0.992601    0.010503   -0.106080    0.247188
H     1.561537   -0.790174   -0.061798   -0.633055   -0.490144    0.083754
H     0.529587   -2.369707   -0.581075    0.021076   -0.221354   -0.209060
O    -0.793771    0.353471   -0.270467    0.000144   -0.002498    0.000361
10
* Frequency(29) 3197.7869
C    -2.055047   -1.674758   -0.029166   -0.099838    0.133504   -0.019945
C    -0.801036   -0.843511   -0.093993   -0.000124    0.006009   -0.000853
H    -3.366209   -0.609992   -0.159992    1.243863   -0.994780    0.120408
H    -2.140611   -2.101955    0.732006   -0.042221   -0.289914    0.507061
H    -2.114987   -2.253725   -0.725565   -0.023611   -0.324774   -0.388049
C     0.459619   -1.651034    0.084028    0.051385    0.067499   -0.010004
H     0.497422   -2.058447    0.994953    0.010503   -0.106080    0.247188
H     1.555514   -0.794837   -0.061001   -0.633055   -0.490144    0.083754
H     0.529788   -2.371814   -0.583064    0.021076   -0.221354   -0.209060
O    -0.793769    0.353447   -0.270464    0.000144   -0.002498    0.000361
10
* Frequency(29) 3197.7869
C    -2.059668   -1.668580   -0.030089   -0.099838    0.133504   -0.019945
C    -0.801042   -0.843233   -0.094032   -0.000124    0.006009   -0.000853
H    -3.308641   -0.656032   -0.154419    1.243863   -0.994780    0.120408
H    -2.142565   -2.115373    0.755474   -0.042221   -0.289914    0.507061
H    -2.116079   -2.268757   -0.743524   -0.023611   -0.324774   -0.388049
C     0.461998   -1.647910    0.083565    0.051385    0.067499   -0.010004
H     0.497909   -2.063357    1.006393    0.010503   -0.106080    0.247188
H     1.526215   -0.817522   -0.057125   -0.633055   -0.490144    0.083754
H     0.530763   -2.382058   -0.592740    0.021076   -0.221354   -0.209060
O    -0.793763    0.353332   -0.270447    0.000144   -0.002498    0.000361
10
* Frequency(29) 3197.7869
C    -2.067459   -1.658162   -0.031646   -0.099838    0.133504   -0.019945
C    -0.801052   -0.842764   -0.094099   -0.000124    0.006009   -0.000853
H    -3.211578   -0.733659   -0.145024    1.243863   -0.994780    0.120408
H    -2.145860   -2.137996    0.795042   -0.042221   -0.289914    0.507061
H    -2.117922   -2.294100   -0.773805   -0.023611   -0.324774   -0.388049
C     0.466007   -1.642643    0.082784    0.051385    0.067499   -0.010004
H     0.498728   -2.071635    1.025682    0.010503   -0.106080    0.247188
H     1.476815   -0.855770   -0.050589   -0.633055   -0.490144    0.083754
H     0.532408   -2.399331   -0.609053    0.021076   -0.221354   -0.209060
O    -0.793751    0.353137   -0.270419    0.000144   -0.002498    0.000361
10
* Frequency(29) 3197.7869
C    -2.077575   -1.644634   -0.033667   -0.099838    0.133504   -0.019945
C    -0.801064   -0.842155   -0.094185   -0.000124    0.006009   -0.000853
H    -3.085538   -0.834459   -0.132823    1.243863   -0.994780    0.120408
H    -2.150138   -2.167373    0.846422   -0.042221   -0.289914    0.507061
H    -2.120314   -2.327009   -0.813126   -0.023611   -0.324774   -0.388049
C     0.471214   -1.635803    0.081770    0.051385    0.067499   -0.010004
H     0.499792   -2.082384    1.050730    0.010503   -0.106080    0.247188
H     1.412668   -0.905436   -0.042102   -0.633055   -0.490144    0.083754
H     0.534544   -2.421761   -0.630237    0.021076   -0.221354   -0.209060
O    -0.793737    0.352884   -0.270382    0.000144   -0.002498    0.000361
10
* Frequency(29) 3197.7869
C    -2.088921   -1.629462   -0.035933   -0.099838    0.133504   -0.019945
C    -0.801078   -0.841472   -0.094282   -0.000124    0.006009   -0.000853
H    -2.944179   -0.947511   -0.119139    1.243863   -0.994780    0.120408
H    -2.154936   -2.200320    0.904047   -0.042221   -0.289914    0.507061
H    -2.122997   -2.363918   -0.857226   -0.023611   -0.324774   -0.388049
C     0.477054   -1.628132    0.080633    0.051385    0.067499   -0.010004
H     0.500986   -2.094439    1.078821    0.010503   -0.106080    0.247188
H     1.340724   -0.961139   -0.032584   -0.633055   -0.490144    0.083754
H     0.536939   -2.446917   -0.653996    0.021076   -0.221354   -0.209060
O    -0.793721    0.352600   -0.270341    0.000144   -0.002498    0.000361
