10
* (null), Energy   -1000.0000000
C    -2.088921   -1.629462   -0.035933    0.001950   -0.010896   -0.076281
C    -0.801078   -0.841472   -0.094282   -0.001273   -0.006387   -0.045746
H    -2.944179   -0.947511   -0.119139    0.011304   -0.087599   -0.797147
H    -2.154936   -2.200320    0.904047   -0.301402    0.672140    0.323845
H    -2.122997   -2.363918   -0.857226    0.308417   -0.615911    0.458843
C     0.477054   -1.628132    0.080633    0.000932   -0.012053   -0.076002
H     0.500986   -2.094439    1.078821    0.313507    0.719055    0.263626
H     1.340724   -0.961139   -0.032584    0.013112   -0.148410   -0.790527
H     0.536939   -2.446917   -0.653996   -0.314302   -0.548664    0.505153
O    -0.793721    0.352600   -0.270341   -0.003139    0.022615    0.150948
10
* Frequency(7)  135.7357
C    -2.088700   -1.630700   -0.044602    0.001950   -0.010896   -0.076281
C    -0.801223   -0.842198   -0.099481   -0.001273   -0.006387   -0.045746
H    -2.942894   -0.957466   -0.209731    0.011304   -0.087599   -0.797147
H    -2.189189   -2.123935    0.940850   -0.301402    0.672140    0.323845
H    -2.087947   -2.433913   -0.805081    0.308417   -0.615911    0.458843
C     0.477160   -1.629502    0.071996    0.000932   -0.012053   -0.076002
H     0.536615   -2.012722    1.108781    0.313507    0.719055    0.263626
H     1.342214   -0.978005   -0.122423    0.013112   -0.148410   -0.790527
H     0.501220   -2.509269   -0.596588   -0.314302   -0.548664    0.505153
O    -0.794077    0.355170   -0.253187   -0.003139    0.022615    0.150948
10
* Frequency(7)  135.7357
C    -2.088502   -1.631804   -0.052332    0.001950   -0.010896   -0.076281
C    -0.801352   -0.842845   -0.104116   -0.001273   -0.006387   -0.045746
H    -2.941749   -0.966343   -0.290505    0.011304   -0.087599   -0.797147
H    -2.219730   -2.055827    0.973665   -0.301402    0.672140    0.323845
H    -2.056696   -2.496323   -0.758587    0.308417   -0.615911    0.458843
C     0.477254   -1.630723    0.064295    0.000932   -0.012053   -0.076002
H     0.568382   -1.939861    1.135494    0.313507    0.719055    0.263626
H     1.343543   -0.993043   -0.202527    0.013112   -0.148410   -0.790527
H     0.469372   -2.564865   -0.545401   -0.314302   -0.548664    0.505153
O    -0.794395    0.357462   -0.237891   -0.003139    0.022615    0.150948
10
* Frequency(7)  135.7357
C    -2.088350   -1.632655   -0.058284    0.001950   -0.010896   -0.076281
C    -0.801451   -0.843344   -0.107686   -0.001273   -0.006387   -0.045746
H    -2.940867   -0.973178   -0.352710    0.011304   -0.087599   -0.797147
H    -2.243249   -2.003378    0.998936   -0.301402    0.672140    0.323845
H    -2.032629   -2.544385   -0.722781    0.308417   -0.615911    0.458843
C     0.477327   -1.631664    0.058364    0.000932   -0.012053   -0.076002
H     0.592846   -1.883750    1.156066    0.313507    0.719055    0.263626
H     1.344566   -1.004624   -0.264215    0.013112   -0.148410   -0.790527
H     0.444846   -2.607680   -0.505982   -0.314302   -0.548664    0.505153
O    -0.794640    0.359227   -0.226112   -0.003139    0.022615    0.150948
10
* Frequency(7)  135.7357
C    -2.088260   -1.633159   -0.061815    0.001950   -0.010896   -0.076281
C    -0.801510   -0.843639   -0.109803   -0.001273   -0.006387   -0.045746
H    -2.940344   -0.977233   -0.389603    0.011304   -0.087599   -0.797147
H    -2.257199   -1.972270    1.013924   -0.301402    0.672140    0.323845
H    -2.018355   -2.572891   -0.701545    0.308417   -0.615911    0.458843
C     0.477370   -1.632222    0.054847    0.000932   -0.012053   -0.076002
H     0.607356   -1.850471    1.168267    0.313507    0.719055    0.263626
H     1.345173   -1.011493   -0.300802    0.013112   -0.148410   -0.790527
H     0.430299   -2.633073   -0.482603   -0.314302   -0.548664    0.505153
O    -0.794785    0.360273   -0.219126   -0.003139    0.022615    0.150948
10
* Frequency(7)  135.7357
C    -2.088241   -1.633263   -0.062540    0.001950   -0.010896   -0.076281
C    -0.801522   -0.843700   -0.110238   -0.001273   -0.006387   -0.045746
H    -2.940236   -0.978066   -0.397188    0.011304   -0.087599   -0.797147
H    -2.260067   -1.965875    1.017006   -0.301402    0.672140    0.323845
H    -2.015420   -2.578751   -0.697180    0.308417   -0.615911    0.458843
C     0.477379   -1.632336    0.054124    0.000932   -0.012053   -0.076002
H     0.610339   -1.843630    1.170775    0.313507    0.719055    0.263626
H     1.345298   -1.012905   -0.308323    0.013112   -0.148410   -0.790527
H     0.427309   -2.638293   -0.477796   -0.314302   -0.548664    0.505153
O    -0.794815    0.360488   -0.217690   -0.003139    0.022615    0.150948
10
* Frequency(7)  135.7357
C    -2.088296   -1.632954   -0.060383    0.001950   -0.010896   -0.076281
C    -0.801486   -0.843519   -0.108944   -0.001273   -0.006387   -0.045746
H    -2.940556   -0.975588   -0.374641    0.011304   -0.087599   -0.797147
H    -2.251542   -1.984886    1.007846   -0.301402    0.672140    0.323845
H    -2.024143   -2.561331   -0.710158    0.308417   -0.615911    0.458843
C     0.477353   -1.631995    0.056273    0.000932   -0.012053   -0.076002
H     0.601472   -1.863967    1.163319    0.313507    0.719055    0.263626
H     1.344927   -1.008707   -0.285964    0.013112   -0.148410   -0.790527
H     0.436199   -2.622775   -0.492084   -0.314302   -0.548664    0.505153
O    -0.794727    0.359849   -0.221959   -0.003139    0.022615    0.150948
10
* Frequency(7)  135.7357
C    -2.088419   -1.632268   -0.055576    0.001950   -0.010896   -0.076281
C    -0.801406   -0.843117   -0.106062   -0.001273   -0.006387   -0.045746
H    -2.941268   -0.970068   -0.324407    0.011304   -0.087599   -0.797147
H    -2.232548   -2.027242    0.987438   -0.301402    0.672140    0.323845
H    -2.043579   -2.522517   -0.739073    0.308417   -0.615911    0.458843
C     0.477294   -1.631236    0.061063    0.000932   -0.012053   -0.076002
H     0.581715   -1.909280    1.146706    0.313507    0.719055    0.263626
H     1.344100   -0.999355   -0.236147    0.013112   -0.148410   -0.790527
H     0.456005   -2.588199   -0.523917   -0.314302   -0.548664    0.505153
O    -0.794529    0.358424   -0.231471   -0.003139    0.022615    0.150948
10
* Frequency(7)  135.7357
C    -2.088596   -1.631277   -0.048640    0.001950   -0.010896   -0.076281
C    -0.801290   -0.842536   -0.101902   -0.001273   -0.006387   -0.045746
H    -2.942296   -0.962104   -0.251929    0.011304   -0.087599   -0.797147
H    -2.205144   -2.088354    0.957994   -0.301402    0.672140    0.323845
H    -2.071621   -2.466518   -0.780791    0.308417   -0.615911    0.458843
C     0.477209   -1.630140    0.067973    0.000932   -0.012053   -0.076002
H     0.553211   -1.974658    1.122736    0.313507    0.719055    0.263626
H     1.342908   -0.985861   -0.164271    0.013112   -0.148410   -0.790527
H     0.484582   -2.538314   -0.569847   -0.314302   -0.548664    0.505153
O    -0.794243    0.356367   -0.245196   -0.003139    0.022615    0.150948
10
* Frequency(7)  135.7357
C    -2.088809   -1.630089   -0.040328    0.001950   -0.010896   -0.076281
C    -0.801152   -0.841840   -0.096917   -0.001273   -0.006387   -0.045746
H    -2.943528   -0.952558   -0.165061    0.011304   -0.087599   -0.797147
H    -2.172299   -2.161600    0.922703   -0.301402    0.672140    0.323845
H    -2.105230   -2.399400   -0.830793    0.308417   -0.615911    0.458843
C     0.477108   -1.628826    0.076255    0.000932   -0.012053   -0.076002
H     0.519047   -2.053016    1.094008    0.313507    0.719055    0.263626
H     1.341479   -0.969688   -0.078125    0.013112   -0.148410   -0.790527
H     0.518832   -2.478524   -0.624895   -0.314302   -0.548664    0.505153
O    -0.793901    0.353903   -0.261645   -0.003139    0.022615    0.150948
10
* Frequency(7)  135.7357
C    -2.089034   -1.628834   -0.031539    0.001950   -0.010896   -0.076281
C    -0.801005   -0.841104   -0.091646   -0.001273   -0.006387   -0.045746
H    -2.944830   -0.942465   -0.073217    0.011304   -0.087599   -0.797147
H    -2.137573   -2.239041    0.885391   -0.301402    0.672140    0.323845
H    -2.140765   -2.328437   -0.883659    0.308417   -0.615911    0.458843
C     0.477000   -1.627438    0.085012    0.000932   -0.012053   -0.076002
H     0.482926   -2.135863    1.063634    0.313507    0.719055    0.263626
H     1.339969   -0.952589    0.012957    0.013112   -0.148410   -0.790527
H     0.555045   -2.415309   -0.683097   -0.314302   -0.548664    0.505153
O    -0.793540    0.351297   -0.279037   -0.003139    0.022615    0.150948
10
* Frequency(7)  135.7357
C    -2.089246   -1.627647   -0.023226    0.001950   -0.010896   -0.076281
C    -0.800866   -0.840408   -0.086661   -0.001273   -0.006387   -0.045746
H    -2.946062   -0.932919    0.013651    0.011304   -0.087599   -0.797147
H    -2.104728   -2.312286    0.850100   -0.301402    0.672140    0.323845
H    -2.174374   -2.261319   -0.933661    0.308417   -0.615911    0.458843
C     0.476899   -1.626124    0.093294    0.000932   -0.012053   -0.076002
H     0.448762   -2.214220    1.034906    0.313507    0.719055    0.263626
H     1.338540   -0.936416    0.099103    0.013112   -0.148410   -0.790527
H     0.589296   -2.355519   -0.738145   -0.314302   -0.548664    0.505153
O    -0.793198    0.348833   -0.295486   -0.003139    0.022615    0.150948
10
* Frequency(7)  135.7357
C    -2.089423   -1.626656   -0.016291    0.001950   -0.010896   -0.076281
C    -0.800751   -0.839828   -0.082502   -0.001273   -0.006387   -0.045746
H    -2.947090   -0.924954    0.086129    0.011304   -0.087599   -0.797147
H    -2.077324   -2.373399    0.820656   -0.301402    0.672140    0.323845
H    -2.202416   -2.205319   -0.975380    0.308417   -0.615911    0.458843
C     0.476814   -1.625028    0.100204    0.000932   -0.012053   -0.076002
H     0.420257   -2.279598    1.010937    0.313507    0.719055    0.263626
H     1.337348   -0.922923    0.170979    0.013112   -0.148410   -0.790527
H     0.617873   -2.305634   -0.784075   -0.314302   -0.548664    0.505153
O    -0.792912    0.346777   -0.309211   -0.003139    0.022615    0.150948
10
* Frequency(7)  135.7357
C    -2.089546   -1.625969   -0.011484    0.001950   -0.010896   -0.076281
C    -0.800670   -0.839425   -0.079619   -0.001273   -0.006387   -0.045746
H    -2.947802   -0.919434    0.136363    0.011304   -0.087599   -0.797147
H    -2.058330   -2.415755    0.800248   -0.301402    0.672140    0.323845
H    -2.221851   -2.166506   -1.004295    0.308417   -0.615911    0.458843
C     0.476755   -1.624269    0.104993    0.000932   -0.012053   -0.076002
H     0.400500   -2.324911    0.994324    0.313507    0.719055    0.263626
H     1.336522   -0.913570    0.220796    0.013112   -0.148410   -0.790527
H     0.637679   -2.271058   -0.815908   -0.314302   -0.548664    0.505153
O    -0.792715    0.345351   -0.318723   -0.003139    0.022615    0.150948
10
* Frequency(7)  135.7357
C    -2.089602   -1.625661   -0.009326    0.001950   -0.010896   -0.076281
C    -0.800634   -0.839245   -0.078325   -0.001273   -0.006387   -0.045746
H    -2.948122   -0.916956    0.158910    0.011304   -0.087599   -0.797147
H    -2.049806   -2.434766    0.791088   -0.301402    0.672140    0.323845
H    -2.230575   -2.149086   -1.017273    0.308417   -0.615911    0.458843
C     0.476729   -1.623928    0.107143    0.000932   -0.012053   -0.076002
H     0.391633   -2.345249    0.986867    0.313507    0.719055    0.263626
H     1.336151   -0.909373    0.243155    0.013112   -0.148410   -0.790527
H     0.646569   -2.255540   -0.830196   -0.314302   -0.548664    0.505153
O    -0.792626    0.344712   -0.322993   -0.003139    0.022615    0.150948
10
* Frequency(7)  135.7357
C    -2.089583   -1.625765   -0.010052    0.001950   -0.010896   -0.076281
C    -0.800647   -0.839305   -0.078761   -0.001273   -0.006387   -0.045746
H    -2.948014   -0.917790    0.151325    0.011304   -0.087599   -0.797147
H    -2.052673   -2.428371    0.794169   -0.301402    0.672140    0.323845
H    -2.227640   -2.154946   -1.012907    0.308417   -0.615911    0.458843
C     0.476737   -1.624043    0.106420    0.000932   -0.012053   -0.076002
H     0.394616   -2.338407    0.989376    0.313507    0.719055    0.263626
H     1.336275   -0.910785    0.235634    0.013112   -0.148410   -0.790527
H     0.643578   -2.260760   -0.825390   -0.314302   -0.548664    0.505153
O    -0.792656    0.344927   -0.321556   -0.003139    0.022615    0.150948
10
* Frequency(7)  135.7357
C    -2.089493   -1.626269   -0.013582    0.001950   -0.010896   -0.076281
C    -0.800705   -0.839601   -0.080878   -0.001273   -0.006387   -0.045746
H    -2.947491   -0.921844    0.114432    0.011304   -0.087599   -0.797147
H    -2.066623   -2.397263    0.809158   -0.301402    0.672140    0.323845
H    -2.213366   -2.183451   -0.991671    0.308417   -0.615911    0.458843
C     0.476781   -1.624600    0.102902    0.000932   -0.012053   -0.076002
H     0.409126   -2.305128    1.001577    0.313507    0.719055    0.263626
H     1.336882   -0.917653    0.199047    0.013112   -0.148410   -0.790527
H     0.629032   -2.286154   -0.802010   -0.314302   -0.548664    0.505153
O    -0.792801    0.345974   -0.314570   -0.003139    0.022615    0.150948
10
* Frequency(7)  135.7357
C    -2.089341   -1.627119   -0.019535    0.001950   -0.010896   -0.076281
C    -0.800805   -0.840099   -0.084448   -0.001273   -0.006387   -0.045746
H    -2.946609   -0.928679    0.052227    0.011304   -0.087599   -0.797147
H    -2.090142   -2.344813    0.834428   -0.301402    0.672140    0.323845
H    -2.189299   -2.231513   -0.955866    0.308417   -0.615911    0.458843
C     0.476853   -1.625541    0.096972    0.000932   -0.012053   -0.076002
H     0.433590   -2.249018    1.022148    0.313507    0.719055    0.263626
H     1.337905   -0.929234    0.137359    0.013112   -0.148410   -0.790527
H     0.604506   -2.328968   -0.762591   -0.314302   -0.548664    0.505153
O    -0.793046    0.347738   -0.302791   -0.003139    0.022615    0.150948
10
* Frequency(7)  135.7357
C    -2.089143   -1.628223   -0.027264    0.001950   -0.010896   -0.076281
C    -0.800934   -0.840746   -0.089083   -0.001273   -0.006387   -0.045746
H    -2.945464   -0.937556   -0.028547    0.011304   -0.087599   -0.797147
H    -2.120683   -2.276705    0.867244   -0.301402    0.672140    0.323845
H    -2.158047   -2.293923   -0.909371    0.308417   -0.615911    0.458843
C     0.476948   -1.626762    0.089270    0.000932   -0.012053   -0.076002
H     0.465358   -2.176156    1.048862    0.313507    0.719055    0.263626
H     1.339234   -0.944273    0.057255    0.013112   -0.148410   -0.790527
H     0.572658   -2.384564   -0.711404   -0.314302   -0.548664    0.505153
O    -0.793364    0.350030   -0.287496   -0.003139    0.022615    0.150948
10
* Frequency(7)  135.7357
C    -2.088921   -1.629462   -0.035933    0.001950   -0.010896   -0.076281
C    -0.801078   -0.841472   -0.094282   -0.001273   -0.006387   -0.045746
H    -2.944179   -0.947511   -0.119139    0.011304   -0.087599   -0.797147
H    -2.154936   -2.200320    0.904047   -0.301402    0.672140    0.323845
H    -2.122997   -2.363918   -0.857226    0.308417   -0.615911    0.458843
C     0.477054   -1.628132    0.080633    0.000932   -0.012053   -0.076002
H     0.500986   -2.094439    1.078821    0.313507    0.719055    0.263626
H     1.340724   -0.961139   -0.032584    0.013112   -0.148410   -0.790527
H     0.536939   -2.446917   -0.653996   -0.314302   -0.548664    0.505153
O    -0.793721    0.352600   -0.270341   -0.003139    0.022615    0.150948
