10
* (null), Energy   -1000.0000000
C    -2.088921   -1.629462   -0.035933    0.300110   -0.188758    0.042395
C    -0.801078   -0.841472   -0.094282    0.001520    0.250903   -0.036404
H    -2.944179   -0.947511   -0.119139   -0.154892   -0.753985    0.107859
H    -2.154936   -2.200320    0.904047    0.762958   -0.226438    0.051428
H    -2.122997   -2.363918   -0.857226    0.705536   -0.251579    0.082494
C     0.477054   -1.628132    0.080633   -0.302240   -0.189569    0.014041
H     0.500986   -2.094439    1.078821   -0.709102   -0.261013   -0.010341
H     1.340724   -0.961139   -0.032584    0.145740   -0.754312    0.120008
H     0.536939   -2.446917   -0.653996   -0.764249   -0.219889    0.010860
O    -0.793721    0.352600   -0.270341    0.001341    0.251105   -0.037866
10
* Frequency(8)  381.8593
C    -2.054815   -1.650913   -0.031115    0.300110   -0.188758    0.042395
C    -0.800906   -0.812958   -0.098419    0.001520    0.250903   -0.036404
H    -2.961782   -1.033198   -0.106881   -0.154892   -0.753985    0.107859
H    -2.068230   -2.226054    0.909891    0.762958   -0.226438    0.051428
H    -2.042817   -2.392509   -0.847851    0.705536   -0.251579    0.082494
C     0.442706   -1.649676    0.082229   -0.302240   -0.189569    0.014041
H     0.420400   -2.124102    1.077646   -0.709102   -0.261013   -0.010341
H     1.357287   -1.046862   -0.018946    0.145740   -0.754312    0.120008
H     0.450086   -2.471906   -0.652762   -0.764249   -0.219889    0.010860
O    -0.793568    0.381137   -0.274644    0.001341    0.251105   -0.037866
10
* Frequency(8)  381.8593
C    -2.024405   -1.670040   -0.026819    0.300110   -0.188758    0.042395
C    -0.800752   -0.787534   -0.102108    0.001520    0.250903   -0.036404
H    -2.977477   -1.109598   -0.095952   -0.154892   -0.753985    0.107859
H    -1.990920   -2.248999    0.915103    0.762958   -0.226438    0.051428
H    -1.971325   -2.418001   -0.839492    0.705536   -0.251579    0.082494
C     0.412080   -1.668884    0.083652   -0.302240   -0.189569    0.014041
H     0.348547   -2.150550    1.076598   -0.709102   -0.261013   -0.010341
H     1.372055   -1.123296   -0.006785    0.145740   -0.754312    0.120008
H     0.372645   -2.494187   -0.651662   -0.764249   -0.219889    0.010860
O    -0.793432    0.406581   -0.278481    0.001341    0.251105   -0.037866
10
* Frequency(8)  381.8593
C    -2.000987   -1.684770   -0.023511    0.300110   -0.188758    0.042395
C    -0.800633   -0.767955   -0.104948    0.001520    0.250903   -0.036404
H    -2.989564   -1.168435   -0.087535   -0.154892   -0.753985    0.107859
H    -1.931383   -2.266668    0.919116    0.762958   -0.226438    0.051428
H    -1.916270   -2.437633   -0.833055    0.705536   -0.251579    0.082494
C     0.388495   -1.683677    0.084747   -0.302240   -0.189569    0.014041
H     0.293213   -2.170918    1.075791   -0.709102   -0.261013   -0.010341
H     1.383427   -1.182158    0.002579    0.145740   -0.754312    0.120008
H     0.313008   -2.511346   -0.650814   -0.764249   -0.219889    0.010860
O    -0.793328    0.426176   -0.281436    0.001341    0.251105   -0.037866
10
* Frequency(8)  381.8593
C    -1.987097   -1.693506   -0.021549    0.300110   -0.188758    0.042395
C    -0.800563   -0.756343   -0.106633    0.001520    0.250903   -0.036404
H    -2.996732   -1.203331   -0.082543   -0.154892   -0.753985    0.107859
H    -1.896072   -2.277148    0.921496    0.762958   -0.226438    0.051428
H    -1.883616   -2.449277   -0.829237    0.705536   -0.251579    0.082494
C     0.374507   -1.692451    0.085397   -0.302240   -0.189569    0.014041
H     0.260395   -2.182998    1.075313   -0.709102   -0.261013   -0.010341
H     1.390172   -1.217069    0.008133    0.145740   -0.754312    0.120008
H     0.277637   -2.521523   -0.650312   -0.764249   -0.219889    0.010860
O    -0.793266    0.437798   -0.283189    0.001341    0.251105   -0.037866
10
* Frequency(8)  381.8593
C    -1.984241   -1.695302   -0.021146    0.300110   -0.188758    0.042395
C    -0.800548   -0.753956   -0.106980    0.001520    0.250903   -0.036404
H    -2.998206   -1.210504   -0.081517   -0.154892   -0.753985    0.107859
H    -1.888813   -2.279303    0.921985    0.762958   -0.226438    0.051428
H    -1.876903   -2.451670   -0.828452    0.705536   -0.251579    0.082494
C     0.371631   -1.694254    0.085531   -0.302240   -0.189569    0.014041
H     0.253648   -2.185482    1.075214   -0.709102   -0.261013   -0.010341
H     1.391559   -1.224246    0.009275    0.145740   -0.754312    0.120008
H     0.270365   -2.523615   -0.650208   -0.764249   -0.219889    0.010860
O    -0.793253    0.440187   -0.283549    0.001341    0.251105   -0.037866
10
* Frequency(8)  381.8593
C    -1.992730   -1.689963   -0.022345    0.300110   -0.188758    0.042395
C    -0.800591   -0.761052   -0.105950    0.001520    0.250903   -0.036404
H    -2.993825   -1.189179   -0.084568   -0.154892   -0.753985    0.107859
H    -1.910392   -2.272898    0.920531    0.762958   -0.226438    0.051428
H    -1.896859   -2.444555   -0.830785    0.705536   -0.251579    0.082494
C     0.380180   -1.688893    0.085134   -0.302240   -0.189569    0.014041
H     0.273704   -2.178099    1.075507   -0.709102   -0.261013   -0.010341
H     1.387437   -1.202911    0.005881    0.145740   -0.754312    0.120008
H     0.291981   -2.517396   -0.650515   -0.764249   -0.219889    0.010860
O    -0.793291    0.433085   -0.282478    0.001341    0.251105   -0.037866
10
* Frequency(8)  381.8593
C    -2.011642   -1.678068   -0.025016    0.300110   -0.188758    0.042395
C    -0.800687   -0.776864   -0.103656    0.001520    0.250903   -0.036404
H    -2.984064   -1.141665   -0.091365   -0.154892   -0.753985    0.107859
H    -1.958472   -2.258629    0.917290    0.762958   -0.226438    0.051428
H    -1.941320   -2.428701   -0.835984    0.705536   -0.251579    0.082494
C     0.399226   -1.676947    0.084249   -0.302240   -0.189569    0.014041
H     0.318390   -2.161651    1.076158   -0.709102   -0.261013   -0.010341
H     1.378253   -1.155377   -0.001682    0.145740   -0.754312    0.120008
H     0.340142   -2.503539   -0.651200   -0.764249   -0.219889    0.010860
O    -0.793375    0.417261   -0.280092    0.001341    0.251105   -0.037866
10
* Frequency(8)  381.8593
C    -2.038928   -1.660905   -0.028871    0.300110   -0.188758    0.042395
C    -0.800825   -0.799676   -0.100346    0.001520    0.250903   -0.036404
H    -2.969981   -1.073111   -0.101172   -0.154892   -0.753985    0.107859
H    -2.027841   -2.238041    0.912614    0.762958   -0.226438    0.051428
H    -2.005468   -2.405827   -0.843484    0.705536   -0.251579    0.082494
C     0.426706   -1.659711    0.082972   -0.302240   -0.189569    0.014041
H     0.382863   -2.137919    1.077099   -0.709102   -0.261013   -0.010341
H     1.365002   -1.086793   -0.012593    0.145740   -0.754312    0.120008
H     0.409629   -2.483546   -0.652187   -0.764249   -0.219889    0.010860
O    -0.793497    0.394430   -0.276649    0.001341    0.251105   -0.037866
10
* Frequency(8)  381.8593
C    -2.071633   -1.640336   -0.033491    0.300110   -0.188758    0.042395
C    -0.800991   -0.827018   -0.096379    0.001520    0.250903   -0.036404
H    -2.953102   -0.990947   -0.112925   -0.154892   -0.753985    0.107859
H    -2.110984   -2.213365    0.907010    0.762958   -0.226438    0.051428
H    -2.082353   -2.378411   -0.852474    0.705536   -0.251579    0.082494
C     0.459642   -1.639053    0.081442   -0.302240   -0.189569    0.014041
H     0.460136   -2.109476    1.078226   -0.709102   -0.261013   -0.010341
H     1.349120   -1.004593   -0.025671    0.145740   -0.754312    0.120008
H     0.492912   -2.459584   -0.653371   -0.764249   -0.219889    0.010860
O    -0.793643    0.367066   -0.272523    0.001341    0.251105   -0.037866
10
* Frequency(8)  381.8593
C    -2.106210   -1.618588   -0.038376    0.300110   -0.188758    0.042395
C    -0.801166   -0.855926   -0.092185    0.001520    0.250903   -0.036404
H    -2.935256   -0.904075   -0.125353   -0.154892   -0.753985    0.107859
H    -2.198889   -2.187276    0.901084    0.762958   -0.226438    0.051428
H    -2.163642   -2.349425   -0.861978    0.705536   -0.251579    0.082494
C     0.494465   -1.617211    0.079824   -0.302240   -0.189569    0.014041
H     0.541836   -2.079403    1.079417   -0.709102   -0.261013   -0.010341
H     1.332328   -0.917684   -0.039497    0.145740   -0.754312    0.120008
H     0.580966   -2.434249   -0.654622   -0.764249   -0.219889    0.010860
O    -0.793798    0.338134   -0.268160    0.001341    0.251105   -0.037866
10
* Frequency(8)  381.8593
C    -2.138914   -1.598018   -0.042995    0.300110   -0.188758    0.042395
C    -0.801332   -0.883268   -0.088218    0.001520    0.250903   -0.036404
H    -2.918377   -0.821911   -0.137106   -0.154892   -0.753985    0.107859
H    -2.282031   -2.162600    0.895480    0.762958   -0.226438    0.051428
H    -2.240527   -2.322010   -0.870968    0.705536   -0.251579    0.082494
C     0.527402   -1.596553    0.078294   -0.302240   -0.189569    0.014041
H     0.619109   -2.050959    1.080544   -0.709102   -0.261013   -0.010341
H     1.316447   -0.835484   -0.052575    0.145740   -0.754312    0.120008
H     0.664249   -2.410287   -0.655805   -0.764249   -0.219889    0.010860
O    -0.793944    0.310771   -0.264033    0.001341    0.251105   -0.037866
10
* Frequency(8)  381.8593
C    -2.166201   -1.580856   -0.046850    0.300110   -0.188758    0.042395
C    -0.801470   -0.906081   -0.084908    0.001520    0.250903   -0.036404
H    -2.904294   -0.753358   -0.146913   -0.154892   -0.753985    0.107859
H    -2.351400   -2.142012    0.890804    0.762958   -0.226438    0.051428
H    -2.304675   -2.299136   -0.878469    0.705536   -0.251579    0.082494
C     0.554882   -1.579318    0.077018   -0.302240   -0.189569    0.014041
H     0.683582   -2.027227    1.081484   -0.709102   -0.261013   -0.010341
H     1.303196   -0.766901   -0.063486    0.145740   -0.754312    0.120008
H     0.733736   -2.390294   -0.656793   -0.764249   -0.219889    0.010860
O    -0.794066    0.287940   -0.260591    0.001341    0.251105   -0.037866
10
* Frequency(8)  381.8593
C    -2.185113   -1.568961   -0.049522    0.300110   -0.188758    0.042395
C    -0.801565   -0.921892   -0.082614    0.001520    0.250903   -0.036404
H    -2.894533   -0.705843   -0.153710   -0.154892   -0.753985    0.107859
H    -2.399480   -2.127742    0.887563    0.762958   -0.226438    0.051428
H    -2.349136   -2.283282   -0.883667    0.705536   -0.251579    0.082494
C     0.573928   -1.567371    0.076133   -0.302240   -0.189569    0.014041
H     0.728268   -2.010779    1.082136   -0.709102   -0.261013   -0.010341
H     1.294011   -0.719366   -0.071049    0.145740   -0.754312    0.120008
H     0.781896   -2.376438   -0.657477   -0.764249   -0.219889    0.010860
O    -0.794150    0.272116   -0.258204    0.001341    0.251105   -0.037866
10
* Frequency(8)  381.8593
C    -2.193601   -1.563622   -0.050721    0.300110   -0.188758    0.042395
C    -0.801608   -0.928988   -0.081584    0.001520    0.250903   -0.036404
H    -2.890152   -0.684518   -0.156761   -0.154892   -0.753985    0.107859
H    -2.421059   -2.121338    0.886109    0.762958   -0.226438    0.051428
H    -2.369092   -2.276166   -0.886000    0.705536   -0.251579    0.082494
C     0.582477   -1.562010    0.075736   -0.302240   -0.189569    0.014041
H     0.748324   -2.003397    1.082428   -0.709102   -0.261013   -0.010341
H     1.289889   -0.698031   -0.074443    0.145740   -0.754312    0.120008
H     0.803512   -2.370218   -0.657784   -0.764249   -0.219889    0.010860
O    -0.794188    0.265013   -0.257133    0.001341    0.251105   -0.037866
10
* Frequency(8)  381.8593
C    -2.190746   -1.565418   -0.050317    0.300110   -0.188758    0.042395
C    -0.801594   -0.926601   -0.081930    0.001520    0.250903   -0.036404
H    -2.891626   -0.691692   -0.155735   -0.154892   -0.753985    0.107859
H    -2.413800   -2.123492    0.886598    0.762958   -0.226438    0.051428
H    -2.362379   -2.278560   -0.885216    0.705536   -0.251579    0.082494
C     0.579601   -1.563813    0.075869   -0.302240   -0.189569    0.014041
H     0.741577   -2.005880    1.082330   -0.709102   -0.261013   -0.010341
H     1.291276   -0.705208   -0.073301    0.145740   -0.754312    0.120008
H     0.796241   -2.372310   -0.657681   -0.764249   -0.219889    0.010860
O    -0.794175    0.267402   -0.257494    0.001341    0.251105   -0.037866
10
* Frequency(8)  381.8593
C    -2.176856   -1.574154   -0.048355    0.300110   -0.188758    0.042395
C    -0.801524   -0.914989   -0.083615    0.001520    0.250903   -0.036404
H    -2.898794   -0.726587   -0.150743   -0.154892   -0.753985    0.107859
H    -2.378489   -2.133972    0.888978    0.762958   -0.226438    0.051428
H    -2.329725   -2.290204   -0.881398    0.705536   -0.251579    0.082494
C     0.565613   -1.572587    0.076519   -0.302240   -0.189569    0.014041
H     0.708759   -2.017960    1.081851   -0.709102   -0.261013   -0.010341
H     1.298021   -0.740119   -0.067747    0.145740   -0.754312    0.120008
H     0.760870   -2.382487   -0.657178   -0.764249   -0.219889    0.010860
O    -0.794113    0.279024   -0.259246    0.001341    0.251105   -0.037866
10
* Frequency(8)  381.8593
C    -2.153437   -1.588884   -0.045047    0.300110   -0.188758    0.042395
C    -0.801405   -0.895410   -0.086456    0.001520    0.250903   -0.036404
H    -2.910881   -0.785424   -0.142326   -0.154892   -0.753985    0.107859
H    -2.318953   -2.151642    0.892991    0.762958   -0.226438    0.051428
H    -2.274670   -2.309835   -0.874960    0.705536   -0.251579    0.082494
C     0.542028   -1.587380    0.077615   -0.302240   -0.189569    0.014041
H     0.653425   -2.038328    1.081044   -0.709102   -0.261013   -0.010341
H     1.309394   -0.798981   -0.058383    0.145740   -0.754312    0.120008
H     0.701233   -2.399646   -0.656331   -0.764249   -0.219889    0.010860
O    -0.794009    0.298619   -0.262201    0.001341    0.251105   -0.037866
10
* Frequency(8)  381.8593
C    -2.123027   -1.608010   -0.040751    0.300110   -0.188758    0.042395
C    -0.801251   -0.869986   -0.090145    0.001520    0.250903   -0.036404
H    -2.926576   -0.861825   -0.131397   -0.154892   -0.753985    0.107859
H    -2.241642   -2.174587    0.898202    0.762958   -0.226438    0.051428
H    -2.203178   -2.335328   -0.866601    0.705536   -0.251579    0.082494
C     0.511402   -1.606589    0.079038   -0.302240   -0.189569    0.014041
H     0.581572   -2.064776    1.079997   -0.709102   -0.261013   -0.010341
H     1.324162   -0.875415   -0.046222    0.145740   -0.754312    0.120008
H     0.623792   -2.421927   -0.655230   -0.764249   -0.219889    0.010860
O    -0.793873    0.324063   -0.266038    0.001341    0.251105   -0.037866
10
* Frequency(8)  381.8593
C    -2.088921   -1.629462   -0.035933    0.300110   -0.188758    0.042395
C    -0.801078   -0.841472   -0.094282    0.001520    0.250903   -0.036404
H    -2.944179   -0.947511   -0.119139   -0.154892   -0.753985    0.107859
H    -2.154936   -2.200320    0.904047    0.762958   -0.226438    0.051428
H    -2.122997   -2.363918   -0.857226    0.705536   -0.251579    0.082494
C     0.477054   -1.628132    0.080633   -0.302240   -0.189569    0.014041
H     0.500986   -2.094439    1.078821   -0.709102   -0.261013   -0.010341
H     1.340724   -0.961139   -0.032584    0.145740   -0.754312    0.120008
H     0.536939   -2.446917   -0.653996   -0.764249   -0.219889    0.010860
O    -0.793721    0.352600   -0.270341    0.001341    0.251105   -0.037866
