10
* (null), Energy   -1000.0000000
C    -2.088921   -1.629462   -0.035933    0.042735    0.047981   -0.001106
C    -0.801078   -0.841472   -0.094282    0.000764   -0.001532    0.000255
H    -2.944179   -0.947511   -0.119139   -0.425131    0.348089   -0.041583
H    -2.154936   -2.200320    0.904047   -0.037238   -0.381293    0.651882
H    -2.122997   -2.363918   -0.857226   -0.016250   -0.520747   -0.598773
C     0.477054   -1.628132    0.080633   -0.054600    0.059472   -0.015648
H     0.500986   -2.094439    1.078821    0.011591   -0.414522    0.920781
H     1.340724   -0.961139   -0.032584    0.556850    0.442527   -0.076389
H     0.536939   -2.446917   -0.653996    0.043344   -0.715091   -0.662569
O    -0.793721    0.352600   -0.270341   -0.000056   -0.001329    0.000204
10
* Frequency(25) 3060.5952
C    -2.084065   -1.624009   -0.036059    0.042735    0.047981   -0.001106
C    -0.800992   -0.841646   -0.094253    0.000764   -0.001532    0.000255
H    -2.992493   -0.907953   -0.123865   -0.425131    0.348089   -0.041583
H    -2.159168   -2.243652    0.978130   -0.037238   -0.381293    0.651882
H    -2.124844   -2.423098   -0.925274   -0.016250   -0.520747   -0.598773
C     0.470849   -1.621373    0.078855   -0.054600    0.059472   -0.015648
H     0.502303   -2.141547    1.183463    0.011591   -0.414522    0.920781
H     1.404007   -0.910848   -0.041265    0.556850    0.442527   -0.076389
H     0.541865   -2.528183   -0.729294    0.043344   -0.715091   -0.662569
O    -0.793727    0.352449   -0.270318   -0.000056   -0.001329    0.000204
10
* Frequency(25) 3060.5952
C    -2.079734   -1.619147   -0.036171    0.042735    0.047981   -0.001106
C    -0.800914   -0.841801   -0.094227    0.000764   -0.001532    0.000255
H    -3.035571   -0.872681   -0.128078   -0.425131    0.348089   -0.041583
H    -2.162941   -2.282289    1.044185   -0.037238   -0.381293    0.651882
H    -2.126491   -2.475865   -0.985947   -0.016250   -0.520747   -0.598773
C     0.465316   -1.615347    0.077269   -0.054600    0.059472   -0.015648
H     0.503478   -2.183551    1.276766    0.011591   -0.414522    0.920781
H     1.460433   -0.866007   -0.049006    0.556850    0.442527   -0.076389
H     0.546257   -2.600643   -0.796432    0.043344   -0.715091   -0.662569
O    -0.793732    0.352314   -0.270297   -0.000056   -0.001329    0.000204
10
* Frequency(25) 3060.5952
C    -2.076400   -1.615403   -0.036257    0.042735    0.047981   -0.001106
C    -0.800855   -0.841921   -0.094207    0.000764   -0.001532    0.000255
H    -3.068746   -0.845518   -0.131323   -0.425131    0.348089   -0.041583
H    -2.165847   -2.312042    1.095054   -0.037238   -0.381293    0.651882
H    -2.127759   -2.516501   -1.032672   -0.016250   -0.520747   -0.598773
C     0.461055   -1.610706    0.076048   -0.054600    0.059472   -0.015648
H     0.504382   -2.215897    1.348618    0.011591   -0.414522    0.920781
H     1.503886   -0.831475   -0.054967    0.556850    0.442527   -0.076389
H     0.549639   -2.656444   -0.848134    0.043344   -0.715091   -0.662569
O    -0.793737    0.352211   -0.270281   -0.000056   -0.001329    0.000204
10
* Frequency(25) 3060.5952
C    -2.074422   -1.613182   -0.036309    0.042735    0.047981   -0.001106
C    -0.800819   -0.841992   -0.094195    0.000764   -0.001532    0.000255
H    -3.088422   -0.829408   -0.133248   -0.425131    0.348089   -0.041583
H    -2.167571   -2.329689    1.125224   -0.037238   -0.381293    0.651882
H    -2.128511   -2.540602   -1.060384   -0.016250   -0.520747   -0.598773
C     0.458528   -1.607954    0.075324   -0.054600    0.059472   -0.015648
H     0.504919   -2.235082    1.391233    0.011591   -0.414522    0.920781
H     1.529658   -0.810994   -0.058502    0.556850    0.442527   -0.076389
H     0.551645   -2.689540   -0.878799    0.043344   -0.715091   -0.662569
O    -0.793739    0.352149   -0.270272   -0.000056   -0.001329    0.000204
10
* Frequency(25) 3060.5952
C    -2.074015   -1.612726   -0.036319    0.042735    0.047981   -0.001106
C    -0.800812   -0.842006   -0.094193    0.000764   -0.001532    0.000255
H    -3.092467   -0.826096   -0.133643   -0.425131    0.348089   -0.041583
H    -2.167925   -2.333317    1.131426   -0.037238   -0.381293    0.651882
H    -2.128665   -2.545557   -1.066081   -0.016250   -0.520747   -0.598773
C     0.458009   -1.607388    0.075175   -0.054600    0.059472   -0.015648
H     0.505029   -2.239026    1.399994    0.011591   -0.414522    0.920781
H     1.534956   -0.806783   -0.059229    0.556850    0.442527   -0.076389
H     0.552058   -2.696344   -0.885103    0.043344   -0.715091   -0.662569
O    -0.793740    0.352137   -0.270270   -0.000056   -0.001329    0.000204
10
* Frequency(25) 3060.5952
C    -2.075224   -1.614083   -0.036288    0.042735    0.047981   -0.001106
C    -0.800834   -0.841963   -0.094200    0.000764   -0.001532    0.000255
H    -3.080442   -0.835941   -0.132467   -0.425131    0.348089   -0.041583
H    -2.166872   -2.322533    1.112989   -0.037238   -0.381293    0.651882
H    -2.128206   -2.530828   -1.049145   -0.016250   -0.520747   -0.598773
C     0.459553   -1.609070    0.075618   -0.054600    0.059472   -0.015648
H     0.504701   -2.227302    1.373951    0.011591   -0.414522    0.920781
H     1.519206   -0.819300   -0.057068    0.556850    0.442527   -0.076389
H     0.550832   -2.676118   -0.866363    0.043344   -0.715091   -0.662569
O    -0.793738    0.352174   -0.270276   -0.000056   -0.001329    0.000204
10
* Frequency(25) 3060.5952
C    -2.077917   -1.617106   -0.036218    0.042735    0.047981   -0.001106
C    -0.800882   -0.841867   -0.094216    0.000764   -0.001532    0.000255
H    -3.053652   -0.857877   -0.129847   -0.425131    0.348089   -0.041583
H    -2.164525   -2.298505    1.071909   -0.037238   -0.381293    0.651882
H    -2.127182   -2.498012   -1.011412   -0.016250   -0.520747   -0.598773
C     0.462994   -1.612818    0.076604   -0.054600    0.059472   -0.015648
H     0.503971   -2.201180    1.315926    0.011591   -0.414522    0.920781
H     1.484115   -0.847186   -0.052254    0.556850    0.442527   -0.076389
H     0.548100   -2.631055   -0.824610    0.043344   -0.715091   -0.662569
O    -0.793735    0.352258   -0.270289   -0.000056   -0.001329    0.000204
10
* Frequency(25) 3060.5952
C    -2.081803   -1.621469   -0.036117    0.042735    0.047981   -0.001106
C    -0.800951   -0.841727   -0.094239    0.000764   -0.001532    0.000255
H    -3.014998   -0.889526   -0.126066   -0.425131    0.348089   -0.041583
H    -2.161139   -2.263837    1.012639   -0.037238   -0.381293    0.651882
H    -2.125704   -2.450665   -0.956971   -0.016250   -0.520747   -0.598773
C     0.467958   -1.618225    0.078027   -0.054600    0.059472   -0.015648
H     0.502917   -2.163491    1.232206    0.011591   -0.414522    0.920781
H     1.433485   -0.887422   -0.045309    0.556850    0.442527   -0.076389
H     0.544159   -2.566038   -0.764368    0.043344   -0.715091   -0.662569
O    -0.793730    0.352379   -0.270307   -0.000056   -0.001329    0.000204
10
* Frequency(25) 3060.5952
C    -2.086459   -1.626698   -0.035997    0.042735    0.047981   -0.001106
C    -0.801034   -0.841560   -0.094267    0.000764   -0.001532    0.000255
H    -2.968670   -0.927458   -0.121534   -0.425131    0.348089   -0.041583
H    -2.157081   -2.222286    0.941601   -0.037238   -0.381293    0.651882
H    -2.123934   -2.393917   -0.891720   -0.016250   -0.520747   -0.598773
C     0.473908   -1.624706    0.079732   -0.054600    0.059472   -0.015648
H     0.501654   -2.118319    1.131866    0.011591   -0.414522    0.920781
H     1.372803   -0.935645   -0.036985    0.556850    0.442527   -0.076389
H     0.539436   -2.488112   -0.692165    0.043344   -0.715091   -0.662569
O    -0.793724    0.352524   -0.270329   -0.000056   -0.001329    0.000204
10
* Frequency(25) 3060.5952
C    -2.091383   -1.632226   -0.035869    0.042735    0.047981   -0.001106
C    -0.801122   -0.841384   -0.094297    0.000764   -0.001532    0.000255
H    -2.919688   -0.967564   -0.116743   -0.425131    0.348089   -0.041583
H    -2.152791   -2.178355    0.866493   -0.037238   -0.381293    0.651882
H    -2.122061   -2.333919   -0.822732   -0.016250   -0.520747   -0.598773
C     0.480199   -1.631558    0.081535   -0.054600    0.059472   -0.015648
H     0.500318   -2.070559    1.025777    0.011591   -0.414522    0.920781
H     1.308645   -0.986632   -0.028183    0.556850    0.442527   -0.076389
H     0.534442   -2.405722   -0.615827    0.043344   -0.715091   -0.662569
O    -0.793717    0.352677   -0.270353   -0.000056   -0.001329    0.000204
10
* Frequency(25) 3060.5952
C    -2.096040   -1.637455   -0.035749    0.042735    0.047981   -0.001106
C    -0.801206   -0.841217   -0.094324    0.000764   -0.001532    0.000255
H    -2.873360   -1.005496   -0.112212   -0.425131    0.348089   -0.041583
H    -2.148733   -2.136804    0.795455   -0.037238   -0.381293    0.651882
H    -2.120291   -2.277171   -0.757482   -0.016250   -0.520747   -0.598773
C     0.486149   -1.638039    0.083240   -0.054600    0.059472   -0.015648
H     0.499055   -2.025387    0.925436    0.011591   -0.414522    0.920781
H     1.247963   -1.034856   -0.019859    0.556850    0.442527   -0.076389
H     0.529718   -2.327796   -0.543624    0.043344   -0.715091   -0.662569
O    -0.793711    0.352821   -0.270375   -0.000056   -0.001329    0.000204
10
* Frequency(25) 3060.5952
C    -2.099926   -1.641817   -0.035648    0.042735    0.047981   -0.001106
C    -0.801275   -0.841078   -0.094348    0.000764   -0.001532    0.000255
H    -2.834706   -1.037145   -0.108431   -0.425131    0.348089   -0.041583
H    -2.145347   -2.102136    0.736185   -0.037238   -0.381293    0.651882
H    -2.118813   -2.229824   -0.703040   -0.016250   -0.520747   -0.598773
C     0.491114   -1.643446    0.084663   -0.054600    0.059472   -0.015648
H     0.498001   -1.987698    0.841717    0.011591   -0.414522    0.920781
H     1.197333   -1.075091   -0.012914    0.556850    0.442527   -0.076389
H     0.525777   -2.262778   -0.483382    0.043344   -0.715091   -0.662569
O    -0.793706    0.352942   -0.270394   -0.000056   -0.001329    0.000204
10
* Frequency(25) 3060.5952
C    -2.102619   -1.644841   -0.035579    0.042735    0.047981   -0.001106
C    -0.801323   -0.840981   -0.094364    0.000764   -0.001532    0.000255
H    -2.807916   -1.059081   -0.105811   -0.425131    0.348089   -0.041583
H    -2.143001   -2.078108    0.695105   -0.037238   -0.381293    0.651882
H    -2.117789   -2.197008   -0.665307   -0.016250   -0.520747   -0.598773
C     0.494554   -1.647194    0.085649   -0.054600    0.059472   -0.015648
H     0.497271   -1.961576    0.783692    0.011591   -0.414522    0.920781
H     1.162242   -1.102978   -0.008100    0.556850    0.442527   -0.076389
H     0.523046   -2.217715   -0.441629    0.043344   -0.715091   -0.662569
O    -0.793703    0.353026   -0.270407   -0.000056   -0.001329    0.000204
10
* Frequency(25) 3060.5952
C    -2.103827   -1.646198   -0.035547    0.042735    0.047981   -0.001106
C    -0.801345   -0.840938   -0.094371    0.000764   -0.001532    0.000255
H    -2.795892   -1.068926   -0.104635   -0.425131    0.348089   -0.041583
H    -2.141947   -2.067323    0.676667   -0.037238   -0.381293    0.651882
H    -2.117330   -2.182279   -0.648371   -0.016250   -0.520747   -0.598773
C     0.496099   -1.648876    0.086091   -0.054600    0.059472   -0.015648
H     0.496943   -1.949852    0.757648    0.011591   -0.414522    0.920781
H     1.146492   -1.115494   -0.005939    0.556850    0.442527   -0.076389
H     0.521820   -2.197490   -0.422889    0.043344   -0.715091   -0.662569
O    -0.793701    0.353064   -0.270412   -0.000056   -0.001329    0.000204
10
* Frequency(25) 3060.5952
C    -2.103421   -1.645741   -0.035558    0.042735    0.047981   -0.001106
C    -0.801338   -0.840953   -0.094368    0.000764   -0.001532    0.000255
H    -2.799936   -1.065614   -0.105030   -0.425131    0.348089   -0.041583
H    -2.142302   -2.070951    0.682870   -0.037238   -0.381293    0.651882
H    -2.117484   -2.187234   -0.654068   -0.016250   -0.520747   -0.598773
C     0.495579   -1.648310    0.085943   -0.054600    0.059472   -0.015648
H     0.497053   -1.953796    0.766409    0.011591   -0.414522    0.920781
H     1.151790   -1.111284   -0.006666    0.556850    0.442527   -0.076389
H     0.522232   -2.204293   -0.429193    0.043344   -0.715091   -0.662569
O    -0.793702    0.353051   -0.270411   -0.000056   -0.001329    0.000204
10
* Frequency(25) 3060.5952
C    -2.101443   -1.643521   -0.035609    0.042735    0.047981   -0.001106
C    -0.801302   -0.841023   -0.094357    0.000764   -0.001532    0.000255
H    -2.819612   -1.049504   -0.106955   -0.425131    0.348089   -0.041583
H    -2.144025   -2.088598    0.713040   -0.037238   -0.381293    0.651882
H    -2.118236   -2.211335   -0.681781   -0.016250   -0.520747   -0.598773
C     0.493052   -1.645558    0.085218   -0.054600    0.059472   -0.015648
H     0.497590   -1.972981    0.809025    0.011591   -0.414522    0.920781
H     1.177562   -1.090803   -0.010202    0.556850    0.442527   -0.076389
H     0.524239   -2.237389   -0.459858    0.043344   -0.715091   -0.662569
O    -0.793704    0.352989   -0.270401   -0.000056   -0.001329    0.000204
10
* Frequency(25) 3060.5952
C    -2.098108   -1.639777   -0.035695    0.042735    0.047981   -0.001106
C    -0.801243   -0.841143   -0.094337    0.000764   -0.001532    0.000255
H    -2.852787   -1.022341   -0.110200   -0.425131    0.348089   -0.041583
H    -2.146931   -2.118352    0.763909   -0.037238   -0.381293    0.651882
H    -2.119504   -2.251971   -0.728505   -0.016250   -0.520747   -0.598773
C     0.488792   -1.640917    0.083997   -0.054600    0.059472   -0.015648
H     0.498494   -2.005327    0.880877    0.011591   -0.414522    0.920781
H     1.221016   -1.056271   -0.016162    0.556850    0.442527   -0.076389
H     0.527621   -2.293190   -0.511561    0.043344   -0.715091   -0.662569
O    -0.793709    0.352886   -0.270385   -0.000056   -0.001329    0.000204
10
* Frequency(25) 3060.5952
C    -2.093778   -1.634915   -0.035808    0.042735    0.047981   -0.001106
C    -0.801165   -0.841298   -0.094311    0.000764   -0.001532    0.000255
H    -2.895865   -0.987070   -0.114413   -0.425131    0.348089   -0.041583
H    -2.150704   -2.156988    0.829964   -0.037238   -0.381293    0.651882
H    -2.121151   -2.304738   -0.789179   -0.016250   -0.520747   -0.598773
C     0.483259   -1.634891    0.082412   -0.054600    0.059472   -0.015648
H     0.499669   -2.047331    0.974179    0.011591   -0.414522    0.920781
H     1.277441   -1.011430   -0.023903    0.556850    0.442527   -0.076389
H     0.532013   -2.365650   -0.578699    0.043344   -0.715091   -0.662569
O    -0.793714    0.352751   -0.270364   -0.000056   -0.001329    0.000204
10
* Frequency(25) 3060.5952
C    -2.088921   -1.629462   -0.035933    0.042735    0.047981   -0.001106
C    -0.801078   -0.841472   -0.094282    0.000764   -0.001532    0.000255
H    -2.944179   -0.947511   -0.119139   -0.425131    0.348089   -0.041583
H    -2.154936   -2.200320    0.904047   -0.037238   -0.381293    0.651882
H    -2.122997   -2.363918   -0.857226   -0.016250   -0.520747   -0.598773
C     0.477054   -1.628132    0.080633   -0.054600    0.059472   -0.015648
H     0.500986   -2.094439    1.078821    0.011591   -0.414522    0.920781
H     1.340724   -0.961139   -0.032584    0.556850    0.442527   -0.076389
H     0.536939   -2.446917   -0.653996    0.043344   -0.715091   -0.662569
O    -0.793721    0.352600   -0.270341   -0.000056   -0.001329    0.000204
