10
* (null), Energy   -1000.0000000
C    -2.088921   -1.629462   -0.035933   -0.053999   -0.062162    0.001700
C    -0.801078   -0.841472   -0.094282    0.006279    0.000140    0.000115
H    -2.944179   -0.947511   -0.119139    0.530734   -0.440448    0.052203
H    -2.154936   -2.200320    0.904047    0.050367    0.493505   -0.843316
H    -2.122997   -2.363918   -0.857226    0.023602    0.671220    0.772418
C     0.477054   -1.628132    0.080633   -0.041804    0.046774   -0.012179
H     0.500986   -2.094439    1.078821    0.011172   -0.324085    0.720666
H     1.340724   -0.961139   -0.032584    0.421310    0.339253   -0.058945
H     0.536939   -2.446917   -0.653996    0.035656   -0.560622   -0.519185
O    -0.793721    0.352600   -0.270341   -0.000384    0.000181   -0.000022
10
* Frequency(24) 3055.1218
C    -2.095058   -1.636526   -0.035740   -0.053999   -0.062162    0.001700
C    -0.800365   -0.841456   -0.094269    0.006279    0.000140    0.000115
H    -2.883864   -0.997566   -0.113206    0.530734   -0.440448    0.052203
H    -2.149212   -2.144236    0.808208    0.050367    0.493505   -0.843316
H    -2.120315   -2.287638   -0.769445    0.023602    0.671220    0.772418
C     0.472303   -1.622816    0.079249   -0.041804    0.046774   -0.012179
H     0.502256   -2.131270    1.160721    0.011172   -0.324085    0.720666
H     1.388604   -0.922584   -0.039283    0.421310    0.339253   -0.058945
H     0.540991   -2.510628   -0.712999    0.035656   -0.560622   -0.519185
O    -0.793764    0.352621   -0.270344   -0.000384    0.000181   -0.000022
10
* Frequency(24) 3055.1218
C    -2.100530   -1.642825   -0.035568   -0.053999   -0.062162    0.001700
C    -0.799729   -0.841442   -0.094257    0.006279    0.000140    0.000115
H    -2.830085   -1.042196   -0.107917    0.530734   -0.440448    0.052203
H    -2.144109   -2.094229    0.722755    0.050367    0.493505   -0.843316
H    -2.117924   -2.219623   -0.691176    0.023602    0.671220    0.772418
C     0.468067   -1.618077    0.078015   -0.041804    0.046774   -0.012179
H     0.503388   -2.164109    1.233746    0.011172   -0.324085    0.720666
H     1.431295   -0.888208   -0.045256    0.421310    0.339253   -0.058945
H     0.544604   -2.567436   -0.765608    0.035656   -0.560622   -0.519185
O    -0.793803    0.352639   -0.270346   -0.000384    0.000181   -0.000022
10
* Frequency(24) 3055.1218
C    -2.104744   -1.647676   -0.035435   -0.053999   -0.062162    0.001700
C    -0.799239   -0.841431   -0.094248    0.006279    0.000140    0.000115
H    -2.788670   -1.076566   -0.103843    0.530734   -0.440448    0.052203
H    -2.140178   -2.055719    0.656948    0.050367    0.493505   -0.843316
H    -2.116082   -2.167245   -0.630901    0.023602    0.671220    0.772418
C     0.464805   -1.614427    0.077065   -0.041804    0.046774   -0.012179
H     0.504260   -2.189399    1.289982    0.011172   -0.324085    0.720666
H     1.464172   -0.861735   -0.049855    0.421310    0.339253   -0.058945
H     0.547386   -2.611184   -0.806122    0.035656   -0.560622   -0.519185
O    -0.793833    0.352653   -0.270348   -0.000384    0.000181   -0.000022
10
* Frequency(24) 3055.1218
C    -2.107243   -1.650553   -0.035356   -0.053999   -0.062162    0.001700
C    -0.798948   -0.841425   -0.094243    0.006279    0.000140    0.000115
H    -2.764106   -1.096951   -0.101427    0.530734   -0.440448    0.052203
H    -2.137847   -2.032879    0.617918    0.050367    0.493505   -0.843316
H    -2.114989   -2.136180   -0.595152    0.023602    0.671220    0.772418
C     0.462870   -1.612262    0.076501   -0.041804    0.046774   -0.012179
H     0.504777   -2.204398    1.323336    0.011172   -0.324085    0.720666
H     1.483671   -0.846033   -0.052583    0.421310    0.339253   -0.058945
H     0.549037   -2.637130   -0.830150    0.035656   -0.560622   -0.519185
O    -0.793851    0.352661   -0.270349   -0.000384    0.000181   -0.000022
10
* Frequency(24) 3055.1218
C    -2.107756   -1.651144   -0.035340   -0.053999   -0.062162    0.001700
C    -0.798888   -0.841423   -0.094242    0.006279    0.000140    0.000115
H    -2.759057   -1.101141   -0.100930    0.530734   -0.440448    0.052203
H    -2.137368   -2.028184    0.609894    0.050367    0.493505   -0.843316
H    -2.114765   -2.129794   -0.587803    0.023602    0.671220    0.772418
C     0.462472   -1.611817    0.076385   -0.041804    0.046774   -0.012179
H     0.504883   -2.207481    1.330193    0.011172   -0.324085    0.720666
H     1.487679   -0.842806   -0.053144    0.421310    0.339253   -0.058945
H     0.549376   -2.642464   -0.835090    0.035656   -0.560622   -0.519185
O    -0.793854    0.352663   -0.270349   -0.000384    0.000181   -0.000022
10
* Frequency(24) 3055.1218
C    -2.106229   -1.649386   -0.035388   -0.053999   -0.062162    0.001700
C    -0.799066   -0.841427   -0.094245    0.006279    0.000140    0.000115
H    -2.774068   -1.088684   -0.102407    0.530734   -0.440448    0.052203
H    -2.138793   -2.042142    0.633747    0.050367    0.493505   -0.843316
H    -2.115432   -2.148778   -0.609650    0.023602    0.671220    0.772418
C     0.463655   -1.613140    0.076730   -0.041804    0.046774   -0.012179
H     0.504567   -2.198315    1.309809    0.011172   -0.324085    0.720666
H     1.475763   -0.852401   -0.051477    0.421310    0.339253   -0.058945
H     0.548367   -2.626608   -0.820406    0.035656   -0.560622   -0.519185
O    -0.793844    0.352658   -0.270348   -0.000384    0.000181   -0.000022
10
* Frequency(24) 3055.1218
C    -2.102826   -1.645469   -0.035495   -0.053999   -0.062162    0.001700
C    -0.799462   -0.841436   -0.094252    0.006279    0.000140    0.000115
H    -2.807513   -1.060928   -0.105696    0.530734   -0.440448    0.052203
H    -2.141967   -2.073241    0.686890    0.050367    0.493505   -0.843316
H    -2.116920   -2.191077   -0.658326    0.023602    0.671220    0.772418
C     0.466289   -1.616088    0.077497   -0.041804    0.046774   -0.012179
H     0.503863   -2.177892    1.264395    0.011172   -0.324085    0.720666
H     1.449213   -0.873780   -0.047763    0.421310    0.339253   -0.058945
H     0.546120   -2.591279   -0.787688    0.035656   -0.560622   -0.519185
O    -0.793819    0.352647   -0.270347   -0.000384    0.000181   -0.000022
10
* Frequency(24) 3055.1218
C    -2.097917   -1.639817   -0.035650   -0.053999   -0.062162    0.001700
C    -0.800032   -0.841449   -0.094263    0.006279    0.000140    0.000115
H    -2.855769   -1.020882   -0.110443    0.530734   -0.440448    0.052203
H    -2.146546   -2.118111    0.763566    0.050367    0.493505   -0.843316
H    -2.119066   -2.252105   -0.728556    0.023602    0.671220    0.772418
C     0.470090   -1.620340    0.078604   -0.041804    0.046774   -0.012179
H     0.502847   -2.148426    1.198871    0.011172   -0.324085    0.720666
H     1.410907   -0.904625   -0.042403    0.421310    0.339253   -0.058945
H     0.542879   -2.540306   -0.740483    0.035656   -0.560622   -0.519185
O    -0.793785    0.352630   -0.270345   -0.000384    0.000181   -0.000022
10
* Frequency(24) 3055.1218
C    -2.092032   -1.633043   -0.035835   -0.053999   -0.062162    0.001700
C    -0.800717   -0.841464   -0.094275    0.006279    0.000140    0.000115
H    -2.913604   -0.972884   -0.116132    0.530734   -0.440448    0.052203
H    -2.152035   -2.171890    0.855465    0.050367    0.493505   -0.843316
H    -2.121638   -2.325251   -0.812729    0.023602    0.671220    0.772418
C     0.474646   -1.625438    0.079932   -0.041804    0.046774   -0.012179
H     0.501630   -2.113109    1.120337    0.011172   -0.324085    0.720666
H     1.364995   -0.941595   -0.035980    0.421310    0.339253   -0.058945
H     0.538993   -2.479213   -0.683905    0.035656   -0.560622   -0.519185
O    -0.793743    0.352610   -0.270342   -0.000384    0.000181   -0.000022
10
* Frequency(24) 3055.1218
C    -2.085811   -1.625881   -0.036031   -0.053999   -0.062162    0.001700
C    -0.801440   -0.841480   -0.094288    0.006279    0.000140    0.000115
H    -2.974754   -0.922138   -0.122146    0.530734   -0.440448    0.052203
H    -2.157838   -2.228750    0.952629    0.050367    0.493505   -0.843316
H    -2.124357   -2.402586   -0.901724    0.023602    0.671220    0.772418
C     0.479462   -1.630827    0.081335   -0.041804    0.046774   -0.012179
H     0.500342   -2.075769    1.037305    0.011172   -0.324085    0.720666
H     1.316453   -0.980682   -0.029188    0.421310    0.339253   -0.058945
H     0.534885   -2.414620   -0.624087    0.035656   -0.560622   -0.519185
O    -0.793698    0.352590   -0.270340   -0.000384    0.000181   -0.000022
10
* Frequency(24) 3055.1218
C    -2.079926   -1.619107   -0.036216   -0.053999   -0.062162    0.001700
C    -0.802124   -0.841496   -0.094301    0.006279    0.000140    0.000115
H    -3.032590   -0.874141   -0.127835    0.530734   -0.440448    0.052203
H    -2.163326   -2.282529    1.044528    0.050367    0.493505   -0.843316
H    -2.126929   -2.475731   -0.985897    0.023602    0.671220    0.772418
C     0.484018   -1.635924    0.082662   -0.041804    0.046774   -0.012179
H     0.499125   -2.040453    0.958772    0.011172   -0.324085    0.720666
H     1.270542   -1.017652   -0.022765    0.421310    0.339253   -0.058945
H     0.530999   -2.353527   -0.567509    0.035656   -0.560622   -0.519185
O    -0.793657    0.352570   -0.270337   -0.000384    0.000181   -0.000022
10
* Frequency(24) 3055.1218
C    -2.075016   -1.613455   -0.036371   -0.053999   -0.062162    0.001700
C    -0.802695   -0.841508   -0.094311    0.006279    0.000140    0.000115
H    -3.080845   -0.834094   -0.132582    0.530734   -0.440448    0.052203
H    -2.167906   -2.327399    1.121204    0.050367    0.493505   -0.843316
H    -2.129075   -2.536760   -1.056126    0.023602    0.671220    0.772418
C     0.487819   -1.640177    0.083769   -0.041804    0.046774   -0.012179
H     0.498109   -2.010986    0.893247    0.011172   -0.324085    0.720666
H     1.232235   -1.048497   -0.017406    0.421310    0.339253   -0.058945
H     0.527757   -2.302554   -0.520304    0.035656   -0.560622   -0.519185
O    -0.793622    0.352553   -0.270335   -0.000384    0.000181   -0.000022
10
* Frequency(24) 3055.1218
C    -2.071613   -1.609537   -0.036478   -0.053999   -0.062162    0.001700
C    -0.803091   -0.841517   -0.094319    0.006279    0.000140    0.000115
H    -3.114290   -0.806339   -0.135871    0.530734   -0.440448    0.052203
H    -2.171080   -2.358499    1.174347    0.050367    0.493505   -0.843316
H    -2.130562   -2.579058   -1.104802    0.023602    0.671220    0.772418
C     0.490453   -1.643124    0.084537   -0.041804    0.046774   -0.012179
H     0.497405   -1.990563    0.847833    0.011172   -0.324085    0.720666
H     1.205685   -1.069876   -0.013691    0.421310    0.339253   -0.058945
H     0.525510   -2.267226   -0.487587    0.035656   -0.560622   -0.519185
O    -0.793598    0.352542   -0.270334   -0.000384    0.000181   -0.000022
10
* Frequency(24) 3055.1218
C    -2.070086   -1.607779   -0.036526   -0.053999   -0.062162    0.001700
C    -0.803268   -0.841521   -0.094322    0.006279    0.000140    0.000115
H    -3.129302   -0.793881   -0.137348    0.530734   -0.440448    0.052203
H    -2.172504   -2.372457    1.198200    0.050367    0.493505   -0.843316
H    -2.131230   -2.598043   -1.126649    0.023602    0.671220    0.772418
C     0.491635   -1.644447    0.084881   -0.041804    0.046774   -0.012179
H     0.497089   -1.981397    0.827450    0.011172   -0.324085    0.720666
H     1.193769   -1.079472   -0.012024    0.421310    0.339253   -0.058945
H     0.524502   -2.251369   -0.472902    0.035656   -0.560622   -0.519185
O    -0.793587    0.352537   -0.270333   -0.000384    0.000181   -0.000022
10
* Frequency(24) 3055.1218
C    -2.070600   -1.608371   -0.036510   -0.053999   -0.062162    0.001700
C    -0.803209   -0.841520   -0.094321    0.006279    0.000140    0.000115
H    -3.124252   -0.798072   -0.136851    0.530734   -0.440448    0.052203
H    -2.172025   -2.367762    1.190176    0.050367    0.493505   -0.843316
H    -2.131005   -2.591657   -1.119300    0.023602    0.671220    0.772418
C     0.491238   -1.644002    0.084766   -0.041804    0.046774   -0.012179
H     0.497196   -1.984480    0.834307    0.011172   -0.324085    0.720666
H     1.197778   -1.076244   -0.012585    0.421310    0.339253   -0.058945
H     0.524841   -2.256703   -0.477842    0.035656   -0.560622   -0.519185
O    -0.793590    0.352539   -0.270334   -0.000384    0.000181   -0.000022
10
* Frequency(24) 3055.1218
C    -2.073099   -1.611248   -0.036431   -0.053999   -0.062162    0.001700
C    -0.802918   -0.841513   -0.094315    0.006279    0.000140    0.000115
H    -3.099689   -0.818456   -0.134435    0.530734   -0.440448    0.052203
H    -2.169694   -2.344921    1.151146    0.050367    0.493505   -0.843316
H    -2.129913   -2.560591   -1.083551    0.023602    0.671220    0.772418
C     0.489303   -1.641837    0.084202   -0.041804    0.046774   -0.012179
H     0.497713   -1.999480    0.867660    0.011172   -0.324085    0.720666
H     1.217277   -1.060543   -0.015313    0.421310    0.339253   -0.058945
H     0.526491   -2.282650   -0.501871    0.035656   -0.560622   -0.519185
O    -0.793608    0.352547   -0.270335   -0.000384    0.000181   -0.000022
10
* Frequency(24) 3055.1218
C    -2.077313   -1.616098   -0.036299   -0.053999   -0.062162    0.001700
C    -0.802428   -0.841502   -0.094307    0.006279    0.000140    0.000115
H    -3.058273   -0.852826   -0.130361    0.530734   -0.440448    0.052203
H    -2.165764   -2.306411    1.085338    0.050367    0.493505   -0.843316
H    -2.128071   -2.508213   -1.023276    0.023602    0.671220    0.772418
C     0.486041   -1.638187    0.083251   -0.041804    0.046774   -0.012179
H     0.498584   -2.024769    0.923897    0.011172   -0.324085    0.720666
H     1.250153   -1.034069   -0.019912    0.421310    0.339253   -0.058945
H     0.529274   -2.326397   -0.542385    0.035656   -0.560622   -0.519185
O    -0.793638    0.352561   -0.270336   -0.000384    0.000181   -0.000022
10
* Frequency(24) 3055.1218
C    -2.082785   -1.622397   -0.036126   -0.053999   -0.062162    0.001700
C    -0.801792   -0.841488   -0.094295    0.006279    0.000140    0.000115
H    -3.004494   -0.897456   -0.125072    0.530734   -0.440448    0.052203
H    -2.160660   -2.256405    0.999885    0.050367    0.493505   -0.843316
H    -2.125680   -2.440199   -0.945007    0.023602    0.671220    0.772418
C     0.481805   -1.633448    0.082017   -0.041804    0.046774   -0.012179
H     0.499716   -2.057609    0.996921    0.011172   -0.324085    0.720666
H     1.292844   -0.999693   -0.025885    0.421310    0.339253   -0.058945
H     0.532887   -2.383205   -0.594993    0.035656   -0.560622   -0.519185
O    -0.793677    0.352579   -0.270339   -0.000384    0.000181   -0.000022
10
* Frequency(24) 3055.1218
C    -2.088921   -1.629462   -0.035933   -0.053999   -0.062162    0.001700
C    -0.801078   -0.841472   -0.094282    0.006279    0.000140    0.000115
H    -2.944179   -0.947511   -0.119139    0.530734   -0.440448    0.052203
H    -2.154936   -2.200320    0.904047    0.050367    0.493505   -0.843316
H    -2.122997   -2.363918   -0.857226    0.023602    0.671220    0.772418
C     0.477054   -1.628132    0.080633   -0.041804    0.046774   -0.012179
H     0.500986   -2.094439    1.078821    0.011172   -0.324085    0.720666
H     1.340724   -0.961139   -0.032584    0.421310    0.339253   -0.058945
H     0.536939   -2.446917   -0.653996    0.035656   -0.560622   -0.519185
O    -0.793721    0.352600   -0.270341   -0.000384    0.000181   -0.000022
