10
* (null), Energy   -1000.0000000
C    -2.088921   -1.629462   -0.035933   -0.236900   -0.295189    0.031948
C    -0.801078   -0.841472   -0.094282   -0.269222    0.004340    0.018224
H    -2.944179   -0.947511   -0.119139   -0.713861   -0.882755    0.083998
H    -2.154936   -2.200320    0.904047    0.193519   -0.377636    0.014395
H    -2.122997   -2.363918   -0.857226    0.201741   -0.349974    0.059346
C     0.477054   -1.628132    0.080633   -0.233921    0.294715   -0.055158
H     0.500986   -2.094439    1.078821    0.205082    0.348664   -0.043134
H     1.340724   -0.961139   -0.032584   -0.703265    0.877319   -0.177499
H     0.536939   -2.446917   -0.653996    0.196567    0.364300   -0.094744
O    -0.793721    0.352600   -0.270341    0.594652   -0.001637    0.013675
10
* Frequency(10)  541.6894
C    -2.115844   -1.663008   -0.032302   -0.236900   -0.295189    0.031948
C    -0.831674   -0.840979   -0.092211   -0.269222    0.004340    0.018224
H    -3.025306   -1.047832   -0.109593   -0.713861   -0.882755    0.083998
H    -2.132944   -2.243237    0.905683    0.193519   -0.377636    0.014395
H    -2.100071   -2.403691   -0.850482    0.201741   -0.349974    0.059346
C     0.450470   -1.594639    0.074365   -0.233921    0.294715   -0.055158
H     0.524293   -2.054815    1.073919    0.205082    0.348664   -0.043134
H     1.260802   -0.861436   -0.052756   -0.703265    0.877319   -0.177499
H     0.559278   -2.405516   -0.664763    0.196567    0.364300   -0.094744
O    -0.726141    0.352414   -0.268787    0.594652   -0.001637    0.013675
10
* Frequency(10)  541.6894
C    -2.139849   -1.692920   -0.029065   -0.236900   -0.295189    0.031948
C    -0.858954   -0.840539   -0.090364   -0.269222    0.004340    0.018224
H    -3.097641   -1.137281   -0.101082   -0.713861   -0.882755    0.083998
H    -2.113335   -2.281502    0.907141    0.193519   -0.377636    0.014395
H    -2.079628   -2.439154   -0.844468    0.201741   -0.349974    0.059346
C     0.426767   -1.564776    0.068776   -0.233921    0.294715   -0.055158
H     0.545073   -2.019485    1.069548    0.205082    0.348664   -0.043134
H     1.189540   -0.772537   -0.070742   -0.703265    0.877319   -0.177499
H     0.579196   -2.368602   -0.674364    0.196567    0.364300   -0.094744
O    -0.665886    0.352248   -0.267401    0.594652   -0.001637    0.013675
10
* Frequency(10)  541.6894
C    -2.158335   -1.715955   -0.026572   -0.236900   -0.295189    0.031948
C    -0.879963   -0.840200   -0.088942   -0.269222    0.004340    0.018224
H    -3.153346   -1.206166   -0.094527   -0.713861   -0.882755    0.083998
H    -2.098234   -2.310971    0.908265    0.193519   -0.377636    0.014395
H    -2.063886   -2.466463   -0.839837    0.201741   -0.349974    0.059346
C     0.408513   -1.541778    0.064472   -0.233921    0.294715   -0.055158
H     0.561077   -1.992278    1.066183    0.205082    0.348664   -0.043134
H     1.134662   -0.704077   -0.084593   -0.703265    0.877319   -0.177499
H     0.594535   -2.340174   -0.681757    0.196567    0.364300   -0.094744
O    -0.619483    0.352120   -0.266334    0.594652   -0.001637    0.013675
10
* Frequency(10)  541.6894
C    -2.169299   -1.729616   -0.025093   -0.236900   -0.295189    0.031948
C    -0.892423   -0.840000   -0.088099   -0.269222    0.004340    0.018224
H    -3.186385   -1.247021   -0.090639   -0.713861   -0.882755    0.083998
H    -2.089277   -2.328449    0.908931    0.193519   -0.377636    0.014395
H    -2.054549   -2.482661   -0.837091    0.201741   -0.349974    0.059346
C     0.397687   -1.528138    0.061919   -0.233921    0.294715   -0.055158
H     0.570568   -1.976141    1.064186    0.205082    0.348664   -0.043134
H     1.102113   -0.663473   -0.092808   -0.703265    0.877319   -0.177499
H     0.603632   -2.323313   -0.686142    0.196567    0.364300   -0.094744
O    -0.591961    0.352044   -0.265702    0.594652   -0.001637    0.013675
10
* Frequency(10)  541.6894
C    -2.171553   -1.732425   -0.024789   -0.236900   -0.295189    0.031948
C    -0.894984   -0.839958   -0.087925   -0.269222    0.004340    0.018224
H    -3.193177   -1.255420   -0.089840   -0.713861   -0.882755    0.083998
H    -2.087436   -2.332042    0.909068    0.193519   -0.377636    0.014395
H    -2.052629   -2.485991   -0.836526    0.201741   -0.349974    0.059346
C     0.395461   -1.525334    0.061394   -0.233921    0.294715   -0.055158
H     0.572520   -1.972824    1.063776    0.205082    0.348664   -0.043134
H     1.095422   -0.655126   -0.094497   -0.703265    0.877319   -0.177499
H     0.605502   -2.319847   -0.687043    0.196567    0.364300   -0.094744
O    -0.586303    0.352029   -0.265571    0.594652   -0.001637    0.013675
10
* Frequency(10)  541.6894
C    -2.164853   -1.724076   -0.025693   -0.236900   -0.295189    0.031948
C    -0.887370   -0.840081   -0.088441   -0.269222    0.004340    0.018224
H    -3.172986   -1.230452   -0.092216   -0.713861   -0.882755    0.083998
H    -2.092909   -2.321361    0.908661    0.193519   -0.377636    0.014395
H    -2.058335   -2.476092   -0.838204    0.201741   -0.349974    0.059346
C     0.402077   -1.533670    0.062954   -0.233921    0.294715   -0.055158
H     0.566719   -1.982685    1.064996    0.205082    0.348664   -0.043134
H     1.115313   -0.679940   -0.089476   -0.703265    0.877319   -0.177499
H     0.599943   -2.330151   -0.684364    0.196567    0.364300   -0.094744
O    -0.603122    0.352075   -0.265958    0.594652   -0.001637    0.013675
10
* Frequency(10)  541.6894
C    -2.149924   -1.705474   -0.027706   -0.236900   -0.295189    0.031948
C    -0.870404   -0.840355   -0.089589   -0.269222    0.004340    0.018224
H    -3.128001   -1.174823   -0.097509   -0.713861   -0.882755    0.083998
H    -2.105104   -2.297563    0.907754    0.193519   -0.377636    0.014395
H    -2.071048   -2.454038   -0.841944    0.201741   -0.349974    0.059346
C     0.416818   -1.552242    0.066430   -0.233921    0.294715   -0.055158
H     0.553795   -2.004657    1.067714    0.205082    0.348664   -0.043134
H     1.159631   -0.735226   -0.078291   -0.703265    0.877319   -0.177499
H     0.587556   -2.353108   -0.678393    0.196567    0.364300   -0.094744
O    -0.640596    0.352178   -0.266820    0.594652   -0.001637    0.013675
10
* Frequency(10)  541.6894
C    -2.128385   -1.678635   -0.030611   -0.236900   -0.295189    0.031948
C    -0.845926   -0.840749   -0.091246   -0.269222    0.004340    0.018224
H    -3.063095   -1.094562   -0.105146   -0.713861   -0.882755    0.083998
H    -2.122699   -2.263228    0.906445    0.193519   -0.377636    0.014395
H    -2.089391   -2.422217   -0.847340    0.201741   -0.349974    0.059346
C     0.438087   -1.579038    0.071445   -0.233921    0.294715   -0.055158
H     0.535149   -2.036358    1.071636    0.205082    0.348664   -0.043134
H     1.223573   -0.814993   -0.062152   -0.703265    0.877319   -0.177499
H     0.569683   -2.386231   -0.669779    0.196567    0.364300   -0.094744
O    -0.694662    0.352327   -0.268063    0.594652   -0.001637    0.013675
10
* Frequency(10)  541.6894
C    -2.102569   -1.646467   -0.034093   -0.236900   -0.295189    0.031948
C    -0.816588   -0.841222   -0.093232   -0.269222    0.004340    0.018224
H    -2.985303   -0.998365   -0.114300   -0.713861   -0.882755    0.083998
H    -2.143788   -2.222075    0.904876    0.193519   -0.377636    0.014395
H    -2.111376   -2.384080   -0.853807    0.201741   -0.349974    0.059346
C     0.463578   -1.611154    0.077456   -0.233921    0.294715   -0.055158
H     0.512800   -2.074353    1.076336    0.205082    0.348664   -0.043134
H     1.300210   -0.910598   -0.042809   -0.703265    0.877319   -0.177499
H     0.548263   -2.425930   -0.659454    0.196567    0.364300   -0.094744
O    -0.759464    0.352506   -0.269553    0.594652   -0.001637    0.013675
10
* Frequency(10)  541.6894
C    -2.075274   -1.612456   -0.037774   -0.236900   -0.295189    0.031948
C    -0.785569   -0.841722   -0.095332   -0.269222    0.004340    0.018224
H    -2.903055   -0.896657   -0.123978   -0.713861   -0.882755    0.083998
H    -2.166084   -2.178565    0.903218    0.193519   -0.377636    0.014395
H    -2.134619   -2.343757   -0.860645    0.201741   -0.349974    0.059346
C     0.490530   -1.645110    0.083811   -0.233921    0.294715   -0.055158
H     0.489172   -2.114525    1.081306    0.205082    0.348664   -0.043134
H     1.381238   -1.011679   -0.022359   -0.703265    0.877319   -0.177499
H     0.525615   -2.467903   -0.648538    0.196567    0.364300   -0.094744
O    -0.827977    0.352694   -0.271129    0.594652   -0.001637    0.013675
10
* Frequency(10)  541.6894
C    -2.049458   -1.580289   -0.041255   -0.236900   -0.295189    0.031948
C    -0.756231   -0.842195   -0.097318   -0.269222    0.004340    0.018224
H    -2.825263   -0.800460   -0.133132   -0.713861   -0.882755    0.083998
H    -2.187173   -2.137413    0.901649    0.193519   -0.377636    0.014395
H    -2.156604   -2.305619   -0.867112    0.201741   -0.349974    0.059346
C     0.516021   -1.677226    0.089822   -0.233921    0.294715   -0.055158
H     0.466823   -2.152520    1.086007    0.205082    0.348664   -0.043134
H     1.457875   -1.107284   -0.003016   -0.703265    0.877319   -0.177499
H     0.504194   -2.507602   -0.638213    0.196567    0.364300   -0.094744
O    -0.892779    0.352873   -0.272619    0.594652   -0.001637    0.013675
10
* Frequency(10)  541.6894
C    -2.027919   -1.553450   -0.044160   -0.236900   -0.295189    0.031948
C    -0.731753   -0.842590   -0.098975   -0.269222    0.004340    0.018224
H    -2.760357   -0.720199   -0.140769   -0.713861   -0.882755    0.083998
H    -2.204768   -2.103078    0.900340    0.193519   -0.377636    0.014395
H    -2.174947   -2.273799   -0.872508    0.201741   -0.349974    0.059346
C     0.537289   -1.704022    0.094837   -0.233921    0.294715   -0.055158
H     0.448177   -2.184221    1.089929    0.205082    0.348664   -0.043134
H     1.521817   -1.187051    0.013123   -0.703265    0.877319   -0.177499
H     0.486322   -2.540725   -0.629599    0.196567    0.364300   -0.094744
O    -0.946845    0.353022   -0.273862    0.594652   -0.001637    0.013675
10
* Frequency(10)  541.6894
C    -2.012990   -1.534848   -0.046173   -0.236900   -0.295189    0.031948
C    -0.714787   -0.842863   -0.100123   -0.269222    0.004340    0.018224
H    -2.715372   -0.664570   -0.146062   -0.713861   -0.882755    0.083998
H    -2.216963   -2.079280    0.899433    0.193519   -0.377636    0.014395
H    -2.187660   -2.251744   -0.876248    0.201741   -0.349974    0.059346
C     0.552030   -1.722594    0.098312   -0.233921    0.294715   -0.055158
H     0.435253   -2.206193    1.092647    0.205082    0.348664   -0.043134
H     1.566135   -1.242338    0.024308   -0.703265    0.877319   -0.177499
H     0.473935   -2.563682   -0.623629    0.196567    0.364300   -0.094744
O    -0.984319    0.353125   -0.274724    0.594652   -0.001637    0.013675
10
* Frequency(10)  541.6894
C    -2.006290   -1.526498   -0.047077   -0.236900   -0.295189    0.031948
C    -0.707172   -0.842986   -0.100638   -0.269222    0.004340    0.018224
H    -2.695181   -0.639602   -0.148438   -0.713861   -0.882755    0.083998
H    -2.222436   -2.068599    0.899026    0.193519   -0.377636    0.014395
H    -2.193366   -2.241846   -0.877926    0.201741   -0.349974    0.059346
C     0.558647   -1.730930    0.099873   -0.233921    0.294715   -0.055158
H     0.429453   -2.216055    1.093867    0.205082    0.348664   -0.043134
H     1.586026   -1.267152    0.029328   -0.703265    0.877319   -0.177499
H     0.468375   -2.573986   -0.620949    0.196567    0.364300   -0.094744
O    -1.001138    0.353171   -0.275111    0.594652   -0.001637    0.013675
10
* Frequency(10)  541.6894
C    -2.008544   -1.529307   -0.046773   -0.236900   -0.295189    0.031948
C    -0.709734   -0.842945   -0.100465   -0.269222    0.004340    0.018224
H    -2.701973   -0.648001   -0.147639   -0.713861   -0.882755    0.083998
H    -2.220595   -2.072192    0.899163    0.193519   -0.377636    0.014395
H    -2.191446   -2.245176   -0.877362    0.201741   -0.349974    0.059346
C     0.556421   -1.728126    0.099348   -0.233921    0.294715   -0.055158
H     0.431404   -2.212737    1.093456    0.205082    0.348664   -0.043134
H     1.579335   -1.258804    0.027640   -0.703265    0.877319   -0.177499
H     0.470246   -2.570520   -0.621850    0.196567    0.364300   -0.094744
O    -0.995480    0.353156   -0.274981    0.594652   -0.001637    0.013675
10
* Frequency(10)  541.6894
C    -2.019508   -1.542969   -0.045294   -0.236900   -0.295189    0.031948
C    -0.722194   -0.842744   -0.099622   -0.269222    0.004340    0.018224
H    -2.735012   -0.688857   -0.143751   -0.713861   -0.882755    0.083998
H    -2.211639   -2.089670    0.899829    0.193519   -0.377636    0.014395
H    -2.182109   -2.261373   -0.874615    0.201741   -0.349974    0.059346
C     0.545595   -1.714486    0.096795   -0.233921    0.294715   -0.055158
H     0.440895   -2.196601    1.091460    0.205082    0.348664   -0.043134
H     1.546786   -1.218200    0.019425   -0.703265    0.877319   -0.177499
H     0.479343   -2.553659   -0.626235    0.196567    0.364300   -0.094744
O    -0.967959    0.353080   -0.274348    0.594652   -0.001637    0.013675
10
* Frequency(10)  541.6894
C    -2.037994   -1.566004   -0.042801   -0.236900   -0.295189    0.031948
C    -0.743202   -0.842405   -0.098200   -0.269222    0.004340    0.018224
H    -2.790717   -0.757741   -0.137196   -0.713861   -0.882755    0.083998
H    -2.196538   -2.119138    0.900952    0.193519   -0.377636    0.014395
H    -2.166367   -2.288683   -0.869984    0.201741   -0.349974    0.059346
C     0.527341   -1.691488    0.092491   -0.233921    0.294715   -0.055158
H     0.456899   -2.169393    1.088094    0.205082    0.348664   -0.043134
H     1.491908   -1.149740    0.005574   -0.703265    0.877319   -0.177499
H     0.494682   -2.525232   -0.633628    0.196567    0.364300   -0.094744
O    -0.921556    0.352952   -0.273281    0.594652   -0.001637    0.013675
10
* Frequency(10)  541.6894
C    -2.061999   -1.595915   -0.039564   -0.236900   -0.295189    0.031948
C    -0.770483   -0.841965   -0.096353   -0.269222    0.004340    0.018224
H    -2.863052   -0.847191   -0.128685   -0.713861   -0.882755    0.083998
H    -2.176928   -2.157404    0.902411    0.193519   -0.377636    0.014395
H    -2.145924   -2.324146   -0.863971    0.201741   -0.349974    0.059346
C     0.503638   -1.661625    0.086902   -0.233921    0.294715   -0.055158
H     0.477680   -2.134063    1.083723    0.205082    0.348664   -0.043134
H     1.420647   -1.060841   -0.012412   -0.703265    0.877319   -0.177499
H     0.514600   -2.488317   -0.643229    0.196567    0.364300   -0.094744
O    -0.861300    0.352786   -0.271895    0.594652   -0.001637    0.013675
10
* Frequency(10)  541.6894
C    -2.088921   -1.629462   -0.035933   -0.236900   -0.295189    0.031948
C    -0.801078   -0.841472   -0.094282   -0.269222    0.004340    0.018224
H    -2.944179   -0.947511   -0.119139   -0.713861   -0.882755    0.083998
H    -2.154936   -2.200320    0.904047    0.193519   -0.377636    0.014395
H    -2.122997   -2.363918   -0.857226    0.201741   -0.349974    0.059346
C     0.477054   -1.628132    0.080633   -0.233921    0.294715   -0.055158
H     0.500986   -2.094439    1.078821    0.205082    0.348664   -0.043134
H     1.340724   -0.961139   -0.032584   -0.703265    0.877319   -0.177499
H     0.536939   -2.446917   -0.653996    0.196567    0.364300   -0.094744
O    -0.793721    0.352600   -0.270341    0.594652   -0.001637    0.013675
