10
* (null), Energy   -1000.0000000
C    -2.088921   -1.629462   -0.035933   -0.008636   -0.005758    0.033835
C    -0.801078   -0.841472   -0.094282    0.016794   -0.075902   -0.515763
H    -2.944179   -0.947511   -0.119139    0.001486    0.079628    0.625079
H    -2.154936   -2.200320    0.904047    0.698763    0.314914    0.285475
H    -2.122997   -2.363918   -0.857226   -0.781307   -0.272619    0.314027
C     0.477054   -1.628132    0.080633   -0.008744    0.015034    0.031250
H     0.500986   -2.094439    1.078821   -0.776071    0.360810    0.218733
H     1.340724   -0.961139   -0.032584   -0.000044    0.102903    0.619653
H     0.536939   -2.446917   -0.653996    0.692037   -0.227455    0.367897
O    -0.793721    0.352600   -0.270341    0.010844    0.027451    0.185186
10
* Frequency(9)  489.9750
C    -2.089903   -1.630116   -0.032088   -0.008636   -0.005758    0.033835
C    -0.799170   -0.850098   -0.152896    0.016794   -0.075902   -0.515763
H    -2.944010   -0.938462   -0.048102    0.001486    0.079628    0.625079
H    -2.075525   -2.164532    0.936490    0.698763    0.314914    0.285475
H    -2.211789   -2.394900   -0.821539   -0.781307   -0.272619    0.314027
C     0.476060   -1.626424    0.084185   -0.008744    0.015034    0.031250
H     0.412790   -2.053435    1.103679   -0.776071    0.360810    0.218733
H     1.340719   -0.949444    0.037836   -0.000044    0.102903    0.619653
H     0.615585   -2.472766   -0.612187    0.692037   -0.227455    0.367897
O    -0.792488    0.355720   -0.249296    0.010844    0.027451    0.185186
10
* Frequency(9)  489.9750
C    -2.090778   -1.630699   -0.028660   -0.008636   -0.005758    0.033835
C    -0.797468   -0.857789   -0.205158    0.016794   -0.075902   -0.515763
H    -2.943860   -0.930393    0.015237    0.001486    0.079628    0.625079
H    -2.004720   -2.132622    0.965417    0.698763    0.314914    0.285475
H    -2.290958   -2.422524   -0.789718   -0.781307   -0.272619    0.314027
C     0.475174   -1.624900    0.087351   -0.008744    0.015034    0.031250
H     0.334151   -2.016874    1.125843   -0.776071    0.360810    0.218733
H     1.340715   -0.939017    0.100626   -0.000044    0.102903    0.619653
H     0.685709   -2.495814   -0.574908    0.692037   -0.227455    0.367897
O    -0.791389    0.358501   -0.230531    0.010844    0.027451    0.185186
10
* Frequency(9)  489.9750
C    -2.091452   -1.631149   -0.026019   -0.008636   -0.005758    0.033835
C    -0.796158   -0.863712   -0.245405    0.016794   -0.075902   -0.515763
H    -2.943744   -0.924179    0.064014    0.001486    0.079628    0.625079
H    -1.950193   -2.108048    0.987693    0.698763    0.314914    0.285475
H    -2.351927   -2.443798   -0.765214   -0.781307   -0.272619    0.314027
C     0.474492   -1.623727    0.089790   -0.008744    0.015034    0.031250
H     0.273591   -1.988719    1.142912   -0.776071    0.360810    0.218733
H     1.340711   -0.930987    0.148979   -0.000044    0.102903    0.619653
H     0.739711   -2.513563   -0.546199    0.692037   -0.227455    0.367897
O    -0.790543    0.360643   -0.216080    0.010844    0.027451    0.185186
10
* Frequency(9)  489.9750
C    -2.091851   -1.631415   -0.024453   -0.008636   -0.005758    0.033835
C    -0.795380   -0.867225   -0.269275    0.016794   -0.075902   -0.515763
H    -2.943675   -0.920494    0.092944    0.001486    0.079628    0.625079
H    -1.917853   -2.093473    1.000906    0.698763    0.314914    0.285475
H    -2.388087   -2.456415   -0.750680   -0.781307   -0.272619    0.314027
C     0.474087   -1.623031    0.091236   -0.008744    0.015034    0.031250
H     0.237673   -1.972020    1.153035   -0.776071    0.360810    0.218733
H     1.340709   -0.926225    0.177658   -0.000044    0.102903    0.619653
H     0.771740   -2.524090   -0.529172    0.692037   -0.227455    0.367897
O    -0.790041    0.361914   -0.207509    0.010844    0.027451    0.185186
10
* Frequency(9)  489.9750
C    -2.091934   -1.631470   -0.024132   -0.008636   -0.005758    0.033835
C    -0.795220   -0.867947   -0.274182    0.016794   -0.075902   -0.515763
H    -2.943661   -0.919737    0.098891    0.001486    0.079628    0.625079
H    -1.911204   -2.090477    1.003622    0.698763    0.314914    0.285475
H    -2.395521   -2.459009   -0.747692   -0.781307   -0.272619    0.314027
C     0.474004   -1.622888    0.091533   -0.008744    0.015034    0.031250
H     0.230289   -1.968587    1.155116   -0.776071    0.360810    0.218733
H     1.340709   -0.925246    0.183554   -0.000044    0.102903    0.619653
H     0.778324   -2.526254   -0.525672    0.692037   -0.227455    0.367897
O    -0.789938    0.362175   -0.205747    0.010844    0.027451    0.185186
10
* Frequency(9)  489.9750
C    -2.091689   -1.631307   -0.025089   -0.008636   -0.005758    0.033835
C    -0.795695   -0.865800   -0.259595    0.016794   -0.075902   -0.515763
H    -2.943703   -0.921989    0.081212    0.001486    0.079628    0.625079
H    -1.930968   -2.099384    0.995547    0.698763    0.314914    0.285475
H    -2.373422   -2.451298   -0.756574   -0.781307   -0.272619    0.314027
C     0.474251   -1.623313    0.090650   -0.008744    0.015034    0.031250
H     0.252239   -1.978792    1.148930   -0.776071    0.360810    0.218733
H     1.340710   -0.928156    0.166028   -0.000044    0.102903    0.619653
H     0.758751   -2.519821   -0.536078    0.692037   -0.227455    0.367897
O    -0.790245    0.361399   -0.210985    0.010844    0.027451    0.185186
10
* Frequency(9)  489.9750
C    -2.091145   -1.630944   -0.027221   -0.008636   -0.005758    0.033835
C    -0.796754   -0.861017   -0.227093    0.016794   -0.075902   -0.515763
H    -2.943796   -0.927007    0.041821    0.001486    0.079628    0.625079
H    -1.975002   -2.119229    0.977558    0.698763    0.314914    0.285475
H    -2.324187   -2.434119   -0.776363   -0.781307   -0.272619    0.314027
C     0.474802   -1.624261    0.088680   -0.008744    0.015034    0.031250
H     0.301145   -2.001529    1.135146   -0.776071    0.360810    0.218733
H     1.340713   -0.934641    0.126979   -0.000044    0.102903    0.619653
H     0.715141   -2.505487   -0.559261    0.692037   -0.227455    0.367897
O    -0.790928    0.359669   -0.222655    0.010844    0.027451    0.185186
10
* Frequency(9)  489.9750
C    -2.090360   -1.630421   -0.030297   -0.008636   -0.005758    0.033835
C    -0.798281   -0.854116   -0.180198    0.016794   -0.075902   -0.515763
H    -2.943932   -0.934247   -0.015012    0.001486    0.079628    0.625079
H    -2.038535   -2.147861    0.951602    0.698763    0.314914    0.285475
H    -2.253149   -2.409332   -0.804915   -0.781307   -0.272619    0.314027
C     0.475597   -1.625628    0.085839   -0.008744    0.015034    0.031250
H     0.371707   -2.034335    1.115258   -0.776071    0.360810    0.218733
H     1.340717   -0.943997    0.070639   -0.000044    0.102903    0.619653
H     0.652219   -2.484806   -0.592711    0.692037   -0.227455    0.367897
O    -0.791914    0.357173   -0.239493    0.010844    0.027451    0.185186
10
* Frequency(9)  489.9750
C    -2.089419   -1.629793   -0.033984   -0.008636   -0.005758    0.033835
C    -0.800111   -0.845845   -0.123994    0.016794   -0.075902   -0.515763
H    -2.944093   -0.942924   -0.083129    0.001486    0.079628    0.625079
H    -2.114682   -2.182179    0.920493    0.698763    0.314914    0.285475
H    -2.168007   -2.379623   -0.839136   -0.781307   -0.272619    0.314027
C     0.476550   -1.627266    0.082434   -0.008744    0.015034    0.031250
H     0.456278   -2.073654    1.091422   -0.776071    0.360810    0.218733
H     1.340722   -0.955211    0.003113   -0.000044    0.102903    0.619653
H     0.576806   -2.460020   -0.632802    0.692037   -0.227455    0.367897
O    -0.793096    0.354181   -0.259673    0.010844    0.027451    0.185186
10
* Frequency(9)  489.9750
C    -2.088424   -1.629130   -0.037882   -0.008636   -0.005758    0.033835
C    -0.802046   -0.837100   -0.064570    0.016794   -0.075902   -0.515763
H    -2.944265   -0.952098   -0.155149    0.001486    0.079628    0.625079
H    -2.195190   -2.218462    0.887601    0.698763    0.314914    0.285475
H    -2.077988   -2.348213   -0.875317   -0.781307   -0.272619    0.314027
C     0.477558   -1.628998    0.078833   -0.008744    0.015034    0.031250
H     0.545694   -2.115225    1.066220   -0.776071    0.360810    0.218733
H     1.340727   -0.967067   -0.068281   -0.000044    0.102903    0.619653
H     0.497072   -2.433813   -0.675190    0.692037   -0.227455    0.367897
O    -0.794345    0.351019   -0.281009    0.010844    0.027451    0.185186
10
* Frequency(9)  489.9750
C    -2.087483   -1.628503   -0.041569   -0.008636   -0.005758    0.033835
C    -0.803876   -0.828828   -0.008365    0.016794   -0.075902   -0.515763
H    -2.944427   -0.960776   -0.223266    0.001486    0.079628    0.625079
H    -2.271337   -2.252779    0.856492    0.698763    0.314914    0.285475
H    -1.992846   -2.318505   -0.909537   -0.781307   -0.272619    0.314027
C     0.478510   -1.630637    0.075428   -0.008744    0.015034    0.031250
H     0.630265   -2.154543    1.042384   -0.776071    0.360810    0.218733
H     1.340732   -0.978280   -0.135807   -0.000044    0.102903    0.619653
H     0.421658   -2.409027   -0.715281    0.692037   -0.227455    0.367897
O    -0.795527    0.348027   -0.301190    0.010844    0.027451    0.185186
10
* Frequency(9)  489.9750
C    -2.086697   -1.627979   -0.044646   -0.008636   -0.005758    0.033835
C    -0.805403   -0.821927    0.038529    0.016794   -0.075902   -0.515763
H    -2.944562   -0.968015   -0.280099    0.001486    0.079628    0.625079
H    -2.334870   -2.281412    0.830536    0.698763    0.314914    0.285475
H    -1.921808   -2.293718   -0.938089   -0.781307   -0.272619    0.314027
C     0.479305   -1.632003    0.072586   -0.008744    0.015034    0.031250
H     0.700827   -2.187349    1.022497   -0.776071    0.360810    0.218733
H     1.340736   -0.987636   -0.192147   -0.000044    0.102903    0.619653
H     0.358737   -2.388346   -0.748731    0.692037   -0.227455    0.367897
O    -0.796513    0.345531   -0.318027    0.010844    0.027451    0.185186
10
* Frequency(9)  489.9750
C    -2.086153   -1.627616   -0.046778   -0.008636   -0.005758    0.033835
C    -0.806461   -0.817144    0.071031    0.016794   -0.075902   -0.515763
H    -2.944655   -0.973033   -0.319490    0.001486    0.079628    0.625079
H    -2.378904   -2.301257    0.812546    0.698763    0.314914    0.285475
H    -1.872573   -2.276538   -0.957878   -0.781307   -0.272619    0.314027
C     0.479856   -1.632951    0.070617   -0.008744    0.015034    0.031250
H     0.749733   -2.210086    1.008713   -0.776071    0.360810    0.218733
H     1.340738   -0.994121   -0.231196   -0.000044    0.102903    0.619653
H     0.315127   -2.374013   -0.771915    0.692037   -0.227455    0.367897
O    -0.797196    0.343802   -0.329697    0.010844    0.027451    0.185186
10
* Frequency(9)  489.9750
C    -2.085909   -1.627454   -0.047735   -0.008636   -0.005758    0.033835
C    -0.806936   -0.814997    0.085619    0.016794   -0.075902   -0.515763
H    -2.944697   -0.975286   -0.337169    0.001486    0.079628    0.625079
H    -2.398668   -2.310164    0.804472    0.698763    0.314914    0.285475
H    -1.850474   -2.268827   -0.966760   -0.781307   -0.272619    0.314027
C     0.480104   -1.633376    0.069733   -0.008744    0.015034    0.031250
H     0.771683   -2.220291    1.002526   -0.776071    0.360810    0.218733
H     1.340740   -0.997032   -0.248722   -0.000044    0.102903    0.619653
H     0.295553   -2.367579   -0.782320    0.692037   -0.227455    0.367897
O    -0.797503    0.343025   -0.334935    0.010844    0.027451    0.185186
10
* Frequency(9)  489.9750
C    -2.085991   -1.627508   -0.047413   -0.008636   -0.005758    0.033835
C    -0.806777   -0.815720    0.080711    0.016794   -0.075902   -0.515763
H    -2.944683   -0.974528   -0.331222    0.001486    0.079628    0.625079
H    -2.392019   -2.307167    0.807188    0.698763    0.314914    0.285475
H    -1.857908   -2.271421   -0.963772   -0.781307   -0.272619    0.314027
C     0.480021   -1.633233    0.070030   -0.008744    0.015034    0.031250
H     0.764299   -2.216858    1.004607   -0.776071    0.360810    0.218733
H     1.340739   -0.996053   -0.242826   -0.000044    0.102903    0.619653
H     0.302138   -2.369743   -0.778820    0.692037   -0.227455    0.367897
O    -0.797400    0.343286   -0.333173    0.010844    0.027451    0.185186
10
* Frequency(9)  489.9750
C    -2.086391   -1.627775   -0.045847   -0.008636   -0.005758    0.033835
C    -0.805999   -0.819232    0.056841    0.016794   -0.075902   -0.515763
H    -2.944614   -0.970843   -0.302292    0.001486    0.079628    0.625079
H    -2.359679   -2.292593    0.820400    0.698763    0.314914    0.285475
H    -1.894068   -2.284039   -0.949239   -0.781307   -0.272619    0.314027
C     0.479616   -1.632537    0.071477   -0.008744    0.015034    0.031250
H     0.728381   -2.200159    1.014731   -0.776071    0.360810    0.218733
H     1.340737   -0.991290   -0.214148   -0.000044    0.102903    0.619653
H     0.334166   -2.380271   -0.761793    0.692037   -0.227455    0.367897
O    -0.796898    0.344557   -0.324602    0.010844    0.027451    0.185186
10
* Frequency(9)  489.9750
C    -2.087065   -1.628224   -0.043207   -0.008636   -0.005758    0.033835
C    -0.804689   -0.825155    0.016594    0.016794   -0.075902   -0.515763
H    -2.944499   -0.964629   -0.253515    0.001486    0.079628    0.625079
H    -2.305152   -2.268019    0.842677    0.698763    0.314914    0.285475
H    -1.955037   -2.305312   -0.924734   -0.781307   -0.272619    0.314027
C     0.478934   -1.631364    0.073915   -0.008744    0.015034    0.031250
H     0.667822   -2.172004    1.031799   -0.776071    0.360810    0.218733
H     1.340734   -0.983260   -0.165794   -0.000044    0.102903    0.619653
H     0.388169   -2.398020   -0.733085    0.692037   -0.227455    0.367897
O    -0.796052    0.346699   -0.310151    0.010844    0.027451    0.185186
10
* Frequency(9)  489.9750
C    -2.087940   -1.628807   -0.039778   -0.008636   -0.005758    0.033835
C    -0.802987   -0.832846   -0.035668    0.016794   -0.075902   -0.515763
H    -2.944348   -0.956560   -0.190176    0.001486    0.079628    0.625079
H    -2.234347   -2.236109    0.871604    0.698763    0.314914    0.285475
H    -2.034206   -2.332936   -0.892914   -0.781307   -0.272619    0.314027
C     0.478048   -1.629841    0.077082   -0.008744    0.015034    0.031250
H     0.589183   -2.135443    1.053963   -0.776071    0.360810    0.218733
H     1.340729   -0.972833   -0.103004   -0.000044    0.102903    0.619653
H     0.458292   -2.421068   -0.695806    0.692037   -0.227455    0.367897
O    -0.794953    0.349480   -0.291387    0.010844    0.027451    0.185186
10
* Frequency(9)  489.9750
C    -2.088921   -1.629462   -0.035933   -0.008636   -0.005758    0.033835
C    -0.801078   -0.841472   -0.094282    0.016794   -0.075902   -0.515763
H    -2.944179   -0.947511   -0.119139    0.001486    0.079628    0.625079
H    -2.154936   -2.200320    0.904047    0.698763    0.314914    0.285475
H    -2.122997   -2.363918   -0.857226   -0.781307   -0.272619    0.314027
C     0.477054   -1.628132    0.080633   -0.008744    0.015034    0.031250
H     0.500986   -2.094439    1.078821   -0.776071    0.360810    0.218733
H     1.340724   -0.961139   -0.032584   -0.000044    0.102903    0.619653
H     0.536939   -2.446917   -0.653996    0.692037   -0.227455    0.367897
O    -0.793721    0.352600   -0.270341    0.010844    0.027451    0.185186
