
                                 *****************
                                 * O   R   C   A *
                                 *****************

           --- An Ab Initio, DFT and Semiempirical electronic structure package ---

                  #######################################################
                  #                        -***-                        #
                  #          Department of theory and spectroscopy      #
                  #               Directorship: Frank Neese             #
                  #        Max Planck Institute fuer Kohlenforschung    #
                  #                Kaiser Wilhelm Platz 1               #
                  #                 D-45470 Muelheim/Ruhr               #
                  #                      Germany                        #
                  #                                                     #
                  #                  All rights reserved                #
                  #                        -***-                        #
                  #######################################################


                         Program Version 4.2.1 -  RELEASE  -


 With contributions from (in alphabetic order):
   Daniel Aravena         : Magnetic Suceptibility
   Michael Atanasov       : Ab Initio Ligand Field Theory (pilot matlab implementation)
   Alexander A. Auer      : GIAO ZORA, VPT2
   Ute Becker             : Parallelization
   Giovanni Bistoni       : ED, misc. LED, open-shell LED, HFLD
   Martin Brehm           : Molecular dynamics
   Dmytro Bykov           : SCF Hessian
   Vijay G. Chilkuri      : MRCI spin determinant printing, contributions to CSF-ICE
   Dipayan Datta          : RHF DLPNO-CCSD density
   Achintya Kumar Dutta   : EOM-CC, STEOM-CC
   Dmitry Ganyushin       : Spin-Orbit,Spin-Spin,Magnetic field MRCI
   Miquel Garcia          : C-PCM Hessian, Gaussian charge scheme
   Yang Guo               : DLPNO-NEVPT2, CIM, IAO-localization
   Andreas Hansen         : Spin unrestricted coupled pair/coupled cluster methods
   Benjamin Helmich-Paris : CASSCF linear response (MC-RPA)
   Lee Huntington         : MR-EOM, pCC
   Robert Izsak           : Overlap fitted RIJCOSX, COSX-SCS-MP3, EOM
   Christian Kollmar      : KDIIS, OOCD, Brueckner-CCSD(T), CCSD density
   Simone Kossmann        : Meta GGA functionals, TD-DFT gradient, OOMP2, MP2 Hessian
   Martin Krupicka        : AUTO-CI
   Lucas Lang             : DCDCAS
   Dagmar Lenk            : GEPOL surface, SMD
   Dimitrios Liakos       : Extrapolation schemes; Compound Job, initial MDCI parallelization
   Dimitrios Manganas     : Further ROCIS development; embedding schemes
   Dimitrios Pantazis     : SARC Basis sets
   Taras Petrenko         : DFT Hessian,TD-DFT gradient, ASA, ECA, R-Raman, ABS, FL, XAS/XES, NRVS
   Peter Pinski           : DLPNO-MP2, DLPNO-MP2 Gradient
   Christoph Reimann      : Effective Core Potentials
   Marius Retegan         : Local ZFS, SOC
   Christoph Riplinger    : Optimizer, TS searches, QM/MM, DLPNO-CCSD(T), (RO)-DLPNO pert. Triples
   Tobias Risthaus        : Range-separated hybrids, TD-DFT gradient, RPA, STAB
   Michael Roemelt        : Original ROCIS implementation
   Masaaki Saitow         : Open-shell DLPNO-CCSD energy and density
   Barbara Sandhoefer     : DKH picture change effects
   Avijit Sen             : IP-ROCIS
   Kantharuban Sivalingam : CASSCF convergence, NEVPT2, FIC-MRCI
   Bernardo de Souza      : ESD, SOC TD-DFT
   Georgi Stoychev        : AutoAux, RI-MP2 NMR
   Willem Van den Heuvel  : Paramagnetic NMR
   Boris Wezisla          : Elementary symmetry handling
   Frank Wennmohs         : Technical directorship


 We gratefully acknowledge several colleagues who have allowed us to
 interface, adapt or use parts of their codes:
   Stefan Grimme, W. Hujo, H. Kruse,             : VdW corrections, initial TS optimization,
                  C. Bannwarth                     DFT functionals, gCP, sTDA/sTD-DF
   Ed Valeev, F. Pavosevic, A. Kumar             : LibInt (2-el integral package), F12 methods
   Garnet Chan, S. Sharma, J. Yang, R. Olivares  : DMRG
   Ulf Ekstrom                                   : XCFun DFT Library
   Mihaly Kallay                                 : mrcc  (arbitrary order and MRCC methods)
   Andreas Klamt, Michael Diedenhofen            : otool_cosmo (COSMO solvation model)
   Jiri Pittner, Ondrej Demel                    : Mk-CCSD
   Frank Weinhold                                : gennbo (NPA and NBO analysis)
   Christopher J. Cramer and Donald G. Truhlar   : smd solvation model
   Lars Goerigk                                  : TD-DFT with DH, B97 family of functionals
   V. Asgeirsson, H. Jonsson                     : NEB implementation
   FAccTs GmbH                                   : IRC, NEB, NEB-TS, Multilevel, MM, QM/MM, CI optimization
   S Lehtola, MJT Oliveira, MAL Marques          : LibXC Library


 Your calculation uses the libint2 library for the computation of 2-el integrals
 For citations please refer to: http://libint.valeyev.net

 Your ORCA version has been built with support for libXC version: 4.2.3
 For citations please refer to: https://tddft.org/programs/libxc/

 This ORCA versions uses:
   CBLAS   interface :  Fast vector & matrix operations
   LAPACKE interface :  Fast linear algebra routines


----- Orbital basis set information -----
Your calculation utilizes the basis: def2-SVP
   F. Weigend and R. Ahlrichs, Phys. Chem. Chem. Phys. 7, 3297 (2005).

================================================================================
                                        WARNINGS
                       Please study these warnings very carefully!
================================================================================


WARNING: Geometry Optimization
  ===> : Switching off AutoStart
         For restart on a previous wavefunction, please use MOREAD

INFO   : the flag for use of LIBINT has been found!

================================================================================
                                       INPUT FILE
================================================================================
NAME = .\Acetona.inp
|  1> ! PBE0 OPT FREQ def2-SVP 

|  2> * xyz 0 1

|  3>    C       -2.08845       -1.63640       -0.00341

|  4>    C       -0.80164       -0.85740       -0.03791

|  5>    H       -2.88872       -1.04100       -0.45128

|  6>    H       -2.34080       -1.87543        1.03226

|  7>    H       -1.98265       -2.55764       -0.58227

|  8>    C        0.47611       -1.64987        0.01777

|  9>    H        0.49734       -2.24930        0.93107

| 10>    H        1.33237       -0.96970        0.01951

| 11>    H        0.54267       -2.29690       -0.86051

| 12>    O       -0.79636        0.37293       -0.06523

| 13> *

| 14> 

| 15> 
| 16>                          ****END OF INPUT****
================================================================================

                       *****************************
                       * Geometry Optimization Run *
                       *****************************

Geometry optimization settings:
Update method            Update   .... BFGS
Choice of coordinates    CoordSys .... Z-matrix Internals
Initial Hessian          InHess   .... Almoef's Model

Convergence Tolerances:
Energy Change            TolE     ....  5.0000e-06 Eh
Max. Gradient            TolMAXG  ....  3.0000e-04 Eh/bohr
RMS Gradient             TolRMSG  ....  1.0000e-04 Eh/bohr
Max. Displacement        TolMAXD  ....  4.0000e-03 bohr
RMS Displacement         TolRMSD  ....  2.0000e-03 bohr
Strict Convergence                ....  False
------------------------------------------------------------------------------
                        ORCA OPTIMIZATION COORDINATE SETUP
------------------------------------------------------------------------------

The optimization will be done in new redundant internal coordinates
Making redundant internal coordinates   ...  (new redundants) done
Evaluating the initial hessian          ...  (Almloef) done
Evaluating the coordinates              ...  done
Calculating the B-matrix                .... done
Calculating the G-matrix                .... done
Diagonalizing the G-matrix              .... done
The first mode is                       ....   12
The number of degrees of freedom        ....   24

    -----------------------------------------------------------------
                    Redundant Internal Coordinates


    -----------------------------------------------------------------
         Definition                    Initial Value    Approx d2E/dq
    -----------------------------------------------------------------
      1. B(C   1,C   0)                  1.5046         0.410066   
      2. B(H   2,C   0)                  1.0934         0.355632   
      3. B(H   3,C   0)                  1.0924         0.356885   
      4. B(H   4,C   0)                  1.0931         0.355970   
      5. B(C   5,C   1)                  1.5046         0.410145   
      6. B(H   6,C   5)                  1.0926         0.356611   
      7. B(H   7,C   5)                  1.0935         0.355456   
      8. B(H   8,C   5)                  1.0929         0.356270   
      9. B(O   9,C   1)                  1.2306         1.004886   
     10. A(C   1,C   0,H   3)          109.4252         0.328848   
     11. A(C   1,C   0,H   4)          109.9624         0.328709   
     12. A(C   1,C   0,H   2)          109.5503         0.328657   
     13. A(H   2,C   0,H   4)          108.2306         0.289745   
     14. A(H   3,C   0,H   4)          109.8757         0.289905   
     15. A(H   2,C   0,H   3)          109.7797         0.289862   
     16. A(C   0,C   1,C   5)          116.9207         0.375186   
     17. A(C   5,C   1,O   9)          121.5841         0.436668   
     18. A(C   0,C   1,O   9)          121.4518         0.436653   
     19. A(H   7,C   5,H   8)          108.7734         0.289761   
     20. A(H   6,C   5,H   8)          110.2269         0.289908   
     21. A(C   1,C   5,H   8)          109.4998         0.328765   
     22. A(H   6,C   5,H   7)          108.9463         0.289804   
     23. A(C   1,C   5,H   7)          109.7201         0.328641   
     24. A(C   1,C   5,H   6)          109.6568         0.328817   
     25. D(O   9,C   1,C   0,H   3)    -94.7952         0.012454   
     26. D(O   9,C   1,C   0,H   2)     25.6034         0.012454   
     27. D(C   5,C   1,C   0,H   2)   -156.7563         0.012454   
     28. D(O   9,C   1,C   0,H   4)    144.4318         0.012454   
     29. D(C   5,C   1,C   0,H   4)    -37.9280         0.012454   
     30. D(C   5,C   1,C   0,H   3)     82.8451         0.012454   
     31. D(H   6,C   5,C   1,C   0)    -58.4879         0.012459   
     32. D(H   8,C   5,C   1,O   9)   -119.7890         0.012459   
     33. D(H   8,C   5,C   1,C   0)     62.5740         0.012459   
     34. D(H   7,C   5,C   1,O   9)     -0.4740         0.012459   
     35. D(H   7,C   5,C   1,C   0)   -178.1110         0.012459   
     36. D(H   6,C   5,C   1,O   9)    119.1491         0.012459   
    -----------------------------------------------------------------

Number of atoms                         .... 10
Number of degrees of freedom            .... 36

         *************************************************************
         *                GEOMETRY OPTIMIZATION CYCLE   1            *
         *************************************************************
---------------------------------
CARTESIAN COORDINATES (ANGSTROEM)
---------------------------------
  C     -2.088450   -1.636400   -0.003410
  C     -0.801640   -0.857400   -0.037910
  H     -2.888720   -1.041000   -0.451280
  H     -2.340800   -1.875430    1.032260
  H     -1.982650   -2.557640   -0.582270
  C      0.476110   -1.649870    0.017770
  H      0.497340   -2.249300    0.931070
  H      1.332370   -0.969700    0.019510
  H      0.542670   -2.296900   -0.860510
  O     -0.796360    0.372930   -0.065230

----------------------------
CARTESIAN COORDINATES (A.U.)
----------------------------
  NO LB      ZA    FRAG     MASS         X           Y           Z
   0 C     6.0000    0    12.011   -3.946599   -3.092348   -0.006444
   1 C     6.0000    0    12.011   -1.514880   -1.620251   -0.071640
   2 H     1.0000    0     1.008   -5.458890   -1.967205   -0.852796
   3 H     1.0000    0     1.008   -4.423471   -3.544049    1.950689
   4 H     1.0000    0     1.008   -3.746666   -4.833239   -1.100331
   5 C     6.0000    0    12.011    0.899718   -3.117802    0.033580
   6 H     1.0000    0     1.008    0.939836   -4.250561    1.759467
   7 H     1.0000    0     1.008    2.517814   -1.832467    0.036869
   8 H     1.0000    0     1.008    1.025498   -4.340512   -1.626128
   9 O     8.0000    0    15.999   -1.504902    0.704736   -0.123267

--------------------------------
INTERNAL COORDINATES (ANGSTROEM)
--------------------------------
 C      0   0   0     0.000000000000     0.00000000     0.00000000
 C      1   0   0     1.504629929950     0.00000000     0.00000000
 H      1   2   0     1.093398724071   109.55030920     0.00000000
 H      1   2   3     1.092441399939   109.42519031   239.60143519
 H      1   2   3     1.093140282489   109.96240654   118.82837880
 C      2   1   3     1.504577690184   116.92071736   203.24366791
 H      6   2   1     1.092649956665   109.65679406   301.51214945
 H      6   2   1     1.093533467298   109.72011970   181.88903020
 H      6   2   1     1.092910706737   109.49980040    62.57402088
 O      2   1   3     1.230644615517   121.45181147    25.60339033

---------------------------
INTERNAL COORDINATES (A.U.)
---------------------------
 C      0   0   0     0.000000000000     0.00000000     0.00000000
 C      1   0   0     2.843338500506     0.00000000     0.00000000
 H      1   2   0     2.066224143673   109.55030920     0.00000000
 H      1   2   3     2.064415063242   109.42519031   239.60143519
 H      1   2   3     2.065735759861   109.96240654   118.82837880
 C      2   1   3     2.843239781656   116.92071736   203.24366791
 H      6   2   1     2.064809178338   109.65679406   301.51214945
 H      6   2   1     2.066478771470   109.72011970   181.88903020
 H      6   2   1     2.065301924563   109.49980040    62.57402088
 O      2   1   3     2.325581291511   121.45181147    25.60339033

---------------------
BASIS SET INFORMATION
---------------------
There are 3 groups of distinct atoms

 Group   1 Type C   : 7s4p1d contracted to 3s2p1d pattern {511/31/1}
 Group   2 Type H   : 4s1p contracted to 2s1p pattern {31/1}
 Group   3 Type O   : 7s4p1d contracted to 3s2p1d pattern {511/31/1}

Atom   0C    basis set group =>   1
Atom   1C    basis set group =>   1
Atom   2H    basis set group =>   2
Atom   3H    basis set group =>   2
Atom   4H    basis set group =>   2
Atom   5C    basis set group =>   1
Atom   6H    basis set group =>   2
Atom   7H    basis set group =>   2
Atom   8H    basis set group =>   2
Atom   9O    basis set group =>   3
------------------------------------------------------------------------------
                           ORCA GTO INTEGRAL CALCULATION
------------------------------------------------------------------------------

                         BASIS SET STATISTICS AND STARTUP INFO

 # of primitive gaussian shells          ...   78
 # of primitive gaussian functions       ...  138
 # of contracted shells                  ...   42
 # of contracted basis functions         ...   86
 Highest angular momentum                ...    2
 Maximum contraction depth               ...    5
 Integral package used                   ... LIBINT
 Integral threshhold            Thresh   ...  2.500e-11
 Primitive cut-off              TCut     ...  2.500e-12


------------------------------ INTEGRAL EVALUATION ----------------------------


 * One electron integrals 
 Pre-screening matrix                    ... done
 Shell pair data                         ... done (   0.001 sec)

Timings:
 Total evaluation time               ...     0.001 sec (   0.000 min)
 One electron matrix time            ...     0.007 sec (   0.000 min) =700.0%
 Schwartz matrix evaluation time     ...     0.085 sec (   0.001 min) =8500.0%

-------------------------------------------------------------------------------
                                 ORCA SCF
-------------------------------------------------------------------------------

------------
SCF SETTINGS
------------
Hamiltonian:
 Density Functional     Method          .... DFT(GTOs)
 Exchange Functional    Exchange        .... PBE
   PBE kappa parameter   XKappa         ....  0.804000
   PBE mue parameter    XMuePBE         ....  0.219520
 Correlation Functional Correlation     .... PBE
   PBE beta parameter  CBetaPBE         ....  0.066725
 LDA part of GGA corr.  LDAOpt          .... PW91-LDA
 Gradients option       PostSCFGGA      .... off
 Hybrid DFT is turned on
   Fraction HF Exchange ScalHFX         ....  0.250000
   Scaling of DF-GGA-X  ScalDFX         ....  0.750000
   Scaling of DF-GGA-C  ScalDFC         ....  1.000000
   Scaling of DF-LDA-C  ScalLDAC        ....  1.000000
   Perturbative correction              ....  0.000000
   Density functional embedding theory  .... OFF
   NL short-range parameter             ....  6.900000


General Settings:
 Integral files         IntName         .... .\Acetona
 Hartree-Fock type      HFTyp           .... RHF
 Total Charge           Charge          ....    0
 Multiplicity           Mult            ....    1
 Number of Electrons    NEL             ....   32
 Basis Dimension        Dim             ....   86
 Nuclear Repulsion      ENuc            ....    119.3303845486 Eh

Convergence Acceleration:
 DIIS                   CNVDIIS         .... on
   Start iteration      DIISMaxIt       ....    12
   Startup error        DIISStart       ....  0.200000
   # of expansion vecs  DIISMaxEq       ....     5
   Bias factor          DIISBfac        ....   1.050
   Max. coefficient     DIISMaxC        ....  10.000
 Newton-Raphson         CNVNR           .... off
 SOSCF                  CNVSOSCF        .... on
   Start iteration      SOSCFMaxIt      ....   150
   Startup grad/error   SOSCFStart      ....  0.003300
 Level Shifting         CNVShift        .... on
   Level shift para.    LevelShift      ....    0.2500
   Turn off err/grad.   ShiftErr        ....    0.0010
 Zerner damping         CNVZerner       .... off
 Static damping         CNVDamp         .... on
   Fraction old density DampFac         ....    0.7000
   Max. Damping (<1)    DampMax         ....    0.9800
   Min. Damping (>=0)   DampMin         ....    0.0000
   Turn off err/grad.   DampErr         ....    0.1000
 Fernandez-Rico         CNVRico         .... off

SCF Procedure:
 Maximum # iterations   MaxIter         ....   125
 SCF integral mode      SCFMode         .... Direct
   Integral package                     .... LIBINT
 Reset frequency        DirectResetFreq ....    20
 Integral Threshold     Thresh          ....  2.500e-11 Eh
 Primitive CutOff       TCut            ....  2.500e-12 Eh

Convergence Tolerance:
 Convergence Check Mode ConvCheckMode   .... Total+1el-Energy
 Convergence forced     ConvForced      .... 0
 Energy Change          TolE            ....  1.000e-08 Eh
 1-El. energy change                    ....  1.000e-05 Eh
 Orbital Gradient       TolG            ....  1.000e-05
 Orbital Rotation angle TolX            ....  1.000e-05
 DIIS Error             TolErr          ....  5.000e-07


Diagonalization of the overlap matrix:
Smallest eigenvalue                        ... 3.332e-03
Time for diagonalization                   ...    0.002 sec
Threshold for overlap eigenvalues          ... 1.000e-08
Number of eigenvalues below threshold      ... 0
Time for construction of square roots      ...    0.001 sec
Total time needed                          ...    0.003 sec

-------------------
DFT GRID GENERATION
-------------------

General Integration Accuracy     IntAcc      ...  4.340
Radial Grid Type                 RadialGrid  ... Gauss-Chebyshev
Angular Grid (max. acc.)         AngularGrid ... Lebedev-110
Angular grid pruning method      GridPruning ... 3 (G Style)
Weight generation scheme         WeightScheme... Becke
Basis function cutoff            BFCut       ...    1.0000e-11
Integration weight cutoff        WCut        ...    1.0000e-14
Grids for H and He will be reduced by one unit

# of grid points (after initial pruning)     ...  11448 (   0.0 sec)
# of grid points (after weights+screening)   ...  10892 (   0.0 sec)
nearest neighbour list constructed           ...    0.0 sec
Grid point re-assignment to atoms done       ...    0.0 sec
Grid point division into batches done        ...    0.0 sec
Reduced shell lists constructed in    0.0 sec

Total number of grid points                  ...    10892
Total number of batches                      ...      174
Average number of points per batch           ...       62
Average number of grid points per atom       ...     1089
Average number of shells per batch           ...    35.02 (83.37%)
Average number of basis functions per batch  ...    71.44 (83.07%)
Average number of large shells per batch     ...    29.46 (84.14%)
Average number of large basis fcns per batch ...    58.70 (82.16%)
Maximum spatial batch extension              ...  18.79, 20.96, 19.40 au
Average spatial batch extension              ...   4.18,  4.19,  4.31 au

Time for grid setup =    0.040 sec

------------------------------
INITIAL GUESS: MODEL POTENTIAL
------------------------------
Loading Hartree-Fock densities                     ... done
Calculating cut-offs                               ... done
Setting up the integral package                    ... done
Initializing the effective Hamiltonian             ... done
Starting the Coulomb interaction                   ... done (   0.0 sec)
Reading the grid                                   ... done
Mapping shells                                     ... done
Starting the XC term evaluation                    ... done (   0.0 sec)
  promolecular density results
     # of electrons  =     31.999117248
     EX              =    -25.222304833
     EC              =     -1.032882408
     EX+EC           =    -26.255187241
Transforming the Hamiltonian                       ... done (   0.0 sec)
Diagonalizing the Hamiltonian                      ... done (   0.0 sec)
Back transforming the eigenvectors                 ... done (   0.0 sec)
Now organizing SCF variables                       ... done
                      ------------------
                      INITIAL GUESS DONE (   0.2 sec)
                      ------------------
--------------
SCF ITERATIONS
--------------
ITER       Energy         Delta-E        Max-DP      RMS-DP      [F,P]     Damp
               ***  Starting incremental Fock matrix formation  ***
  0   -192.6330632877   0.000000000000 0.09009984  0.00442653  0.2394489 0.7000
  1   -192.7042445343  -0.071181246639 0.06007444  0.00297274  0.0995857 0.7000
                               ***Turning on DIIS***
  2   -192.7314495155  -0.027204981204 0.07200395  0.00415478  0.0426772 0.0000
  3   -192.7739753288  -0.042525813263 0.05718406  0.00239319  0.0506188 0.0000
  4   -192.7833715920  -0.009396263167 0.00882661  0.00055580  0.0157400 0.0000
                      *** Initiating the SOSCF procedure ***
                           *** Shutting down DIIS ***
                      *** Re-Reading the Fockian *** 
                      *** Removing any level shift *** 
ITER      Energy       Delta-E        Grad      Rot      Max-DP    RMS-DP
  5   -192.78414197  -0.0007703806  0.000727  0.000727  0.004353  0.000187
               *** Restarting incremental Fock matrix formation ***
  6   -192.78416584  -0.0000238646  0.000314  0.000835  0.002960  0.000124
  7   -192.78416707  -0.0000012345  0.000232  0.000144  0.000598  0.000020
  8   -192.78416832  -0.0000012438  0.000043  0.000090  0.000159  0.000007
  9   -192.78416829   0.0000000233  0.000084  0.000082  0.000101  0.000004
 10   -192.78416833  -0.0000000414  0.000005  0.000011  0.000059  0.000002
 11   -192.78416833  -0.0000000005  0.000003  0.000004  0.000015  0.000001
                  ***Gradient check signals convergence***
              ***Rediagonalizing the Fockian in SOSCF/NRSCF***

               *****************************************************
               *                     SUCCESS                       *
               *           SCF CONVERGED AFTER  12 CYCLES          *
               *****************************************************

Setting up the final grid:

General Integration Accuracy     IntAcc      ...  4.670
Radial Grid Type                 RadialGrid  ... Gauss-Chebyshev
Angular Grid (max. acc.)         AngularGrid ... Lebedev-302
Angular grid pruning method      GridPruning ... 3 (G Style)
Weight generation scheme         WeightScheme... Becke
Basis function cutoff            BFCut       ...    1.0000e-11
Integration weight cutoff        WCut        ...    1.0000e-14
Grids for H and He will be reduced by one unit

# of grid points (after initial pruning)     ...  45212 (   0.0 sec)
# of grid points (after weights+screening)   ...  42601 (   0.0 sec)
nearest neighbour list constructed           ...    0.0 sec
Grid point re-assignment to atoms done       ...    0.0 sec
Grid point division into batches done        ...    0.1 sec
Reduced shell lists constructed in    0.2 sec

Total number of grid points                  ...    42601
Total number of batches                      ...      672
Average number of points per batch           ...       63
Average number of grid points per atom       ...     4260
Average number of shells per batch           ...    32.25 (76.77%)
Average number of basis functions per batch  ...    65.33 (75.96%)
Average number of large shells per batch     ...    26.67 (82.72%)
Average number of large basis fcns per batch ...    52.74 (80.72%)
Maximum spatial batch extension              ...  17.39, 17.52, 19.75 au
Average spatial batch extension              ...   2.75,  2.73,  2.83 au

Final grid set up in    0.2 sec
Final integration                            ... done (   0.2 sec)
Change in XC energy                          ...    -0.000033727
Integrated number of electrons               ...    32.000079069
Previous integrated no of electrons          ...    31.998707595

----------------
TOTAL SCF ENERGY
----------------

Total Energy       :         -192.78420206 Eh           -5245.92484 eV

Components:
Nuclear Repulsion  :          119.33038455 Eh            3247.14485 eV
Electronic Energy  :         -312.11458661 Eh           -8493.06968 eV
One Electron Energy:         -496.99528669 Eh          -13523.92929 eV
Two Electron Energy:          184.88070008 Eh            5030.85961 eV

Virial components:
Potential Energy   :         -383.75046322 Eh          -10442.38098 eV
Kinetic Energy     :          190.96626116 Eh            5196.45615 eV
Virial Ratio       :            2.00951970


DFT components:
N(Alpha)           :       16.000039534296 electrons
N(Beta)            :       16.000039534296 electrons
N(Total)           :       32.000079068591 electrons
E(X)               :      -19.318151269112 Eh       
E(C)               :       -1.048429934656 Eh       
E(XC)              :      -20.366581203768 Eh       
DFET-embed. en.    :        0.000000000000 Eh       

---------------
SCF CONVERGENCE
---------------

  Last Energy change         ...   -8.4100e-11  Tolerance :   1.0000e-08
  Last MAX-Density change    ...    4.0584e-06  Tolerance :   1.0000e-07
  Last RMS-Density change    ...    1.7061e-07  Tolerance :   5.0000e-09
  Last Orbital Gradient      ...    8.2921e-07  Tolerance :   1.0000e-05
  Last Orbital Rotation      ...    7.4586e-07  Tolerance :   1.0000e-05

             **** THE GBW FILE WAS UPDATED (.\Acetona.gbw) ****
             **** DENSITY FILE WAS UPDATED (.\Acetona.scfp) ****
             **** ENERGY FILE WAS UPDATED (.\Acetona.en.tmp) ****
             **** THE GBW FILE WAS UPDATED (.\Acetona.gbw) ****
             **** DENSITY FILE WAS UPDATED (.\Acetona.scfp) ****
----------------
ORBITAL ENERGIES
----------------

  NO   OCC          E(Eh)            E(eV) 
   0   2.0000     -19.193547      -522.2830 
   1   2.0000     -10.321346      -280.8581 
   2   2.0000     -10.238788      -278.6116 
   3   2.0000     -10.238583      -278.6060 
   4   2.0000      -1.044647       -28.4263 
   5   2.0000      -0.789421       -21.4812 
   6   2.0000      -0.728117       -19.8131 
   7   2.0000      -0.543308       -14.7842 
   8   2.0000      -0.479552       -13.0493 
   9   2.0000      -0.472340       -12.8530 
  10   2.0000      -0.463586       -12.6148 
  11   2.0000      -0.424231       -11.5439 
  12   2.0000      -0.402781       -10.9602 
  13   2.0000      -0.389340       -10.5945 
  14   2.0000      -0.357147        -9.7185 
  15   2.0000      -0.259034        -7.0487 
  16   0.0000      -0.011338        -0.3085 
  17   0.0000       0.061429         1.6716 
  18   0.0000       0.116892         3.1808 
  19   0.0000       0.122865         3.3433 
  20   0.0000       0.133713         3.6385 
  21   0.0000       0.152998         4.1633 
  22   0.0000       0.158340         4.3087 
  23   0.0000       0.205276         5.5859 
  24   0.0000       0.280077         7.6213 
  25   0.0000       0.286009         7.7827 
  26   0.0000       0.419883        11.4256 
  27   0.0000       0.455223        12.3872 
  28   0.0000       0.473134        12.8746 
  29   0.0000       0.505783        13.7631 
  30   0.0000       0.513196        13.9648 
  31   0.0000       0.597814        16.2673 
  32   0.0000       0.608350        16.5540 
  33   0.0000       0.623016        16.9531 
  34   0.0000       0.648796        17.6546 
  35   0.0000       0.651177        17.7194 
  36   0.0000       0.676877        18.4188 
  37   0.0000       0.683248        18.5921 
  38   0.0000       0.689745        18.7689 
  39   0.0000       0.701769        19.0961 
  40   0.0000       0.715687        19.4748 
  41   0.0000       0.721849        19.6425 
  42   0.0000       0.833214        22.6729 
  43   0.0000       0.944983        25.7143 
  44   0.0000       0.990430        26.9510 
  45   0.0000       1.045429        28.4476 
  46   0.0000       1.126835        30.6627 
  47   0.0000       1.193376        32.4734 
  48   0.0000       1.301984        35.4288 
  49   0.0000       1.353578        36.8327 
  50   0.0000       1.428199        38.8633 
  51   0.0000       1.513405        41.1818 
  52   0.0000       1.521851        41.4117 
  53   0.0000       1.569301        42.7029 
  54   0.0000       1.615193        43.9516 
  55   0.0000       1.625637        44.2358 
  56   0.0000       1.711318        46.5673 
  57   0.0000       1.726737        46.9869 
  58   0.0000       1.770941        48.1898 
  59   0.0000       1.793306        48.7983 
  60   0.0000       1.801377        49.0180 
  61   0.0000       1.806522        49.1580 
  62   0.0000       1.854174        50.4546 
  63   0.0000       1.941816        52.8395 
  64   0.0000       2.024106        55.0787 
  65   0.0000       2.042509        55.5795 
  66   0.0000       2.061506        56.0964 
  67   0.0000       2.188708        59.5578 
  68   0.0000       2.291286        62.3491 
  69   0.0000       2.357352        64.1468 
  70   0.0000       2.370061        64.4926 
  71   0.0000       2.475331        67.3572 
  72   0.0000       2.485295        67.6283 
  73   0.0000       2.504975        68.1638 
  74   0.0000       2.650142        72.1140 
  75   0.0000       2.694955        73.3335 
  76   0.0000       2.713435        73.8363 
  77   0.0000       2.766498        75.2802 
  78   0.0000       2.854504        77.6750 
  79   0.0000       2.904717        79.0414 
  80   0.0000       2.922981        79.5383 
  81   0.0000       2.957944        80.4897 
  82   0.0000       3.031647        82.4953 
  83   0.0000       3.164642        86.1143 
  84   0.0000       3.380822        91.9969 
  85   0.0000       3.615654        98.3870 

                    ********************************
                    * MULLIKEN POPULATION ANALYSIS *
                    ********************************

-----------------------
MULLIKEN ATOMIC CHARGES
-----------------------
   0 C :   -0.049464
   1 C :   -0.028096
   2 H :    0.066468
   3 H :    0.075078
   4 H :    0.046033
   5 C :   -0.054220
   6 H :    0.063363
   7 H :    0.061015
   8 H :    0.064595
   9 O :   -0.244771
Sum of atomic charges:   -0.0000000

--------------------------------
MULLIKEN REDUCED ORBITAL CHARGES
--------------------------------
  0 C s       :     3.001892  s :     3.001892
      pz      :     1.030245  p :     3.023660
      px      :     0.989744
      py      :     1.003671
      dz2     :     0.005367  d :     0.023912
      dxz     :     0.002735
      dyz     :     0.004735
      dx2y2   :     0.004644
      dxy     :     0.006431
  1 C s       :     3.187793  s :     3.187793
      pz      :     0.773398  p :     2.743626
      px      :     1.055343
      py      :     0.914885
      dz2     :     0.004769  d :     0.096678
      dxz     :     0.005113
      dyz     :     0.019096
      dx2y2   :     0.024444
      dxy     :     0.043256
  2 H s       :     0.909590  s :     0.909590
      pz      :     0.006534  p :     0.023942
      px      :     0.009430
      py      :     0.007978
  3 H s       :     0.899440  s :     0.899440
      pz      :     0.013991  p :     0.025481
      px      :     0.005512
      py      :     0.005979
  4 H s       :     0.929287  s :     0.929287
      pz      :     0.007969  p :     0.024680
      px      :     0.004583
      py      :     0.012128
  5 C s       :     3.003385  s :     3.003385
      pz      :     1.013029  p :     3.026920
      px      :     0.988088
      py      :     1.025804
      dz2     :     0.005094  d :     0.023915
      dxz     :     0.001158
      dyz     :     0.006722
      dx2y2   :     0.003575
      dxy     :     0.007366
  6 H s       :     0.911430  s :     0.911430
      pz      :     0.012071  p :     0.025208
      px      :     0.004734
      py      :     0.008402
  7 H s       :     0.915291  s :     0.915291
      pz      :     0.004681  p :     0.023694
      px      :     0.010028
      py      :     0.008985
  8 H s       :     0.910262  s :     0.910262
      pz      :     0.011521  p :     0.025143
      px      :     0.004765
      py      :     0.008857
  9 O s       :     3.783765  s :     3.783765
      pz      :     1.297487  p :     4.443617
      px      :     1.815669
      py      :     1.330460
      dz2     :     0.001871  d :     0.017389
      dxz     :     0.000014
      dyz     :     0.005754
      dx2y2   :     0.006010
      dxy     :     0.003740


                     *******************************
                     * LOEWDIN POPULATION ANALYSIS *
                     *******************************

----------------------
LOEWDIN ATOMIC CHARGES
----------------------
   0 C :   -0.091792
   1 C :    0.083303
   2 H :    0.046162
   3 H :    0.053794
   4 H :    0.037378
   5 C :   -0.092286
   6 H :    0.046673
   7 H :    0.042798
   8 H :    0.046199
   9 O :   -0.172230

-------------------------------
LOEWDIN REDUCED ORBITAL CHARGES
-------------------------------
  0 C s       :     2.848371  s :     2.848371
      pz      :     1.067484  p :     3.176758
      px      :     1.045866
      py      :     1.063409
      dz2     :     0.014941  d :     0.066663
      dxz     :     0.007358
      dyz     :     0.012951
      dx2y2   :     0.012838
      dxy     :     0.018574
  1 C s       :     2.888017  s :     2.888017
      pz      :     0.749017  p :     2.817309
      px      :     1.046397
      py      :     1.021895
      dz2     :     0.011524  d :     0.211371
      dxz     :     0.008629
      dyz     :     0.032419
      dx2y2   :     0.056941
      dxy     :     0.101858
  2 H s       :     0.885717  s :     0.885717
      pz      :     0.017209  p :     0.068121
      px      :     0.029490
      py      :     0.021422
  3 H s       :     0.876649  s :     0.876649
      pz      :     0.038577  p :     0.069557
      px      :     0.015924
      py      :     0.015055
  4 H s       :     0.894020  s :     0.894020
      pz      :     0.020963  p :     0.068601
      px      :     0.013474
      py      :     0.034165
  5 C s       :     2.849142  s :     2.849142
      pz      :     1.060933  p :     3.176349
      px      :     1.044727
      py      :     1.070689
      dz2     :     0.014749  d :     0.066795
      dxz     :     0.002523
      dyz     :     0.018378
      dx2y2   :     0.009622
      dxy     :     0.021522
  6 H s       :     0.884142  s :     0.884142
      pz      :     0.032782  p :     0.069186
      px      :     0.013745
      py      :     0.022659
  7 H s       :     0.889420  s :     0.889420
      pz      :     0.012141  p :     0.067782
      px      :     0.031522
      py      :     0.024119
  8 H s       :     0.884582  s :     0.884582
      pz      :     0.031235  p :     0.069219
      px      :     0.013916
      py      :     0.024068
  9 O s       :     3.566089  s :     3.566089
      pz      :     1.298259  p :     4.576546
      px      :     1.817046
      py      :     1.461241
      dz2     :     0.004008  d :     0.029594
      dxz     :     0.000013
      dyz     :     0.006775
      dx2y2   :     0.012410
      dxy     :     0.006388


                      *****************************
                      * MAYER POPULATION ANALYSIS *
                      *****************************

  NA   - Mulliken gross atomic population
  ZA   - Total nuclear charge
  QA   - Mulliken gross atomic charge
  VA   - Mayer's total valence
  BVA  - Mayer's bonded valence
  FA   - Mayer's free valence

  ATOM       NA         ZA         QA         VA         BVA        FA
  0 C      6.0495     6.0000    -0.0495     3.8302     3.8302    -0.0000
  1 C      6.0281     6.0000    -0.0281     4.2432     4.2432     0.0000
  2 H      0.9335     1.0000     0.0665     1.0108     1.0108     0.0000
  3 H      0.9249     1.0000     0.0751     0.9937     0.9937     0.0000
  4 H      0.9540     1.0000     0.0460     0.9929     0.9929     0.0000
  5 C      6.0542     6.0000    -0.0542     3.8320     3.8320     0.0000
  6 H      0.9366     1.0000     0.0634     0.9910     0.9910     0.0000
  7 H      0.9390     1.0000     0.0610     1.0145     1.0145    -0.0000
  8 H      0.9354     1.0000     0.0646     0.9909     0.9909     0.0000
  9 O      8.2448     8.0000    -0.2448     2.2078     2.2078    -0.0000

  Mayer bond orders larger than 0.100000
B(  0-C ,  1-C ) :   1.0049 B(  0-C ,  2-H ) :   0.9578 B(  0-C ,  3-H ) :   0.9479 
B(  0-C ,  4-H ) :   0.9577 B(  1-C ,  5-C ) :   1.0078 B(  1-C ,  9-O ) :   2.1238 
B(  5-C ,  6-H ) :   0.9553 B(  5-C ,  7-H ) :   0.9595 B(  5-C ,  8-H ) :   0.9494 


-------
TIMINGS
-------

Total SCF time: 0 days 0 hours 0 min 6 sec 

Total time                  ....       6.042 sec
Sum of individual times     ....       5.850 sec  ( 96.8%)

Fock matrix formation       ....       5.422 sec  ( 89.7%)
  XC integration            ....       0.847 sec  ( 15.6% of F)
    Basis function eval.    ....       0.259 sec  ( 30.6% of XC)
    Density eval.           ....       0.191 sec  ( 22.6% of XC)
    XC-Functional eval.     ....       0.081 sec  (  9.6% of XC)
    XC-Potential eval.      ....       0.215 sec  ( 25.4% of XC)
Diagonalization             ....       0.002 sec  (  0.0%)
Density matrix formation    ....       0.000 sec  (  0.0%)
Population analysis         ....       0.004 sec  (  0.1%)
Initial guess               ....       0.127 sec  (  2.1%)
Orbital Transformation      ....       0.000 sec  (  0.0%)
Orbital Orthonormalization  ....       0.000 sec  (  0.0%)
DIIS solution               ....       0.002 sec  (  0.0%)
SOSCF solution              ....       0.004 sec  (  0.1%)
Grid generation             ....       0.289 sec  (  4.8%)

-------------------------   --------------------
FINAL SINGLE POINT ENERGY      -192.784202061156
-------------------------   --------------------

------------------------------------------------------------------------------
                         ORCA SCF GRADIENT CALCULATION
------------------------------------------------------------------------------

Gradient of the Kohn-Sham DFT energy:
Kohn-Sham wavefunction type      ... RKS
Hartree-Fock exchange scaling    ...    0.250
Number of operators              ...    1
Number of atoms                  ...   10
Basis set dimensions             ...   86
Integral neglect threshold       ... 2.5e-11
Integral primitive cutoff        ... 2.5e-12

Nuclear repulsion gradient       ... done
One Electron Gradient            ... done
Pre-screening matrix             ... done
Starting the two electron gradient:
Two electron gradient done
Exchange-correlation gradient    ... done

------------------
CARTESIAN GRADIENT
------------------

   1   C   :   -0.003477585   -0.003174758    0.010926606
   2   C   :   -0.001369816   -0.040478195   -0.004110031
   3   H   :    0.002942729   -0.003301979   -0.002209989
   4   H   :    0.001803358    0.002859157   -0.004817583
   5   H   :    0.001134339    0.006722539   -0.001460080
   6   C   :    0.000732909   -0.009714133    0.001641193
   7   H   :   -0.000075013    0.006963511   -0.002592665
   8   H   :   -0.001440393   -0.002427124   -0.000298341
   9   H   :   -0.000679367    0.006972886    0.001971973
  10   O   :    0.000428840    0.035578096    0.000948917

Difference to translation invariance:
           :    0.0000000000   -0.0000000000    0.0000000000

Norm of the cartesian gradient     ...    0.0581999534
RMS gradient                       ...    0.0106258091
MAX gradient                       ...    0.0404781946

-------
TIMINGS
-------

Total SCF gradient time            ...        2.271 sec

One electron gradient       ....       0.016 sec  (  0.7%)
Prescreening matrices       ....       0.018 sec  (  0.8%)
Two electron gradient       ....       1.050 sec  ( 46.2%)
XC gradient                 ....       1.088 sec  ( 47.9%)
------------------------------------------------------------------------------
                         ORCA GEOMETRY RELAXATION STEP
------------------------------------------------------------------------------

Reading the OPT-File                    .... done
Getting information on internals        .... done
Copying old internal coords+grads       .... done
Making the new internal coordinates     .... (new redundants).... done
Validating the new internal coordinates .... (new redundants).... done
Calculating the B-matrix                .... done
Calculating the G,G- and P matrices     .... done
Transforming gradient to internals      .... done
Projecting the internal gradient        .... done
Number of atoms                         ....  10
Number of internal coordinates          ....  36
Current Energy                          ....  -192.784202061 Eh
Current gradient norm                   ....     0.058199953 Eh/bohr
Maximum allowed component of the step   ....  0.300
Current trust radius                    ....  0.300
Evaluating the initial hessian          ....  (Almloef) done
Projecting the Hessian                  .... done
Forming the augmented Hessian           .... done
Diagonalizing the augmented Hessian     .... done
Last element of RFO vector              ....  0.992463778
Lowest eigenvalues of augmented Hessian:
 -0.002383070  0.012457403  0.012472326  0.012641381  0.137478665
Length of the computed step             ....  0.123468850
The final length of the internal step   ....  0.123468850
Converting the step to cartesian space:
 Initial RMS(Int)=    0.0205781417
Transforming coordinates:
 Iter   0:  RMS(Cart)=    0.0155359571 RMS(Int)=    0.0206497043
 Iter   1:  RMS(Cart)=    0.0002437506 RMS(Int)=    0.0002236702
 Iter   2:  RMS(Cart)=    0.0000053371 RMS(Int)=    0.0000056399
 Iter   3:  RMS(Cart)=    0.0000001532 RMS(Int)=    0.0000001586
 Iter   4:  RMS(Cart)=    0.0000000036 RMS(Int)=    0.0000000034
done
Storing new coordinates                 .... done

                                .--------------------.
          ----------------------|Geometry convergence|-------------------------
          Item                value                   Tolerance       Converged
          ---------------------------------------------------------------------
          RMS gradient        0.0065275912            0.0001000000      NO
          MAX gradient        0.0355499237            0.0003000000      NO
          RMS step            0.0205781417            0.0020000000      NO
          MAX step            0.0596561552            0.0040000000      NO
          ........................................................
          Max(Bonds)      0.0187      Max(Angles)    1.36
          Max(Dihed)        3.42      Max(Improp)    0.00
          ---------------------------------------------------------------------

The optimization has not yet converged - more geometry cycles are needed


    ---------------------------------------------------------------------------
                         Redundant Internal Coordinates
                            (Angstroem and degrees)

        Definition                    Value    dE/dq     Step     New-Value
    ----------------------------------------------------------------------------
     1. B(C   1,C   0)                1.5046 -0.003611  0.0046    1.5093   
     2. B(H   2,C   0)                1.0934 -0.003045  0.0045    1.0979   
     3. B(H   3,C   0)                1.0924 -0.005609  0.0083    1.1007   
     4. B(H   4,C   0)                1.0931 -0.004785  0.0071    1.1002   
     5. B(C   5,C   1)                1.5046 -0.002156  0.0028    1.5073   
     6. B(H   6,C   5)                1.0926 -0.005990  0.0088    1.1015   
     7. B(H   7,C   5)                1.0935 -0.002640  0.0039    1.0974   
     8. B(H   8,C   5)                1.0929 -0.005750  0.0085    1.1014   
     9. B(O   9,C   1)                1.2306  0.035550 -0.0187    1.2120   
    10. A(C   1,C   0,H   3)          109.43  0.000109   -0.28    109.15   
    11. A(C   1,C   0,H   4)          109.96 -0.004902    1.01    110.98   
    12. A(C   1,C   0,H   2)          109.55  0.000490    0.05    109.61   
    13. A(H   2,C   0,H   4)          108.23 -0.001360    0.91    109.14   
    14. A(H   3,C   0,H   4)          109.88  0.004013   -1.04    108.83   
    15. A(H   2,C   0,H   3)          109.78  0.001638   -0.64    109.14   
    16. A(C   0,C   1,C   5)          116.92 -0.000046    0.04    116.96   
    17. A(C   5,C   1,O   9)          121.58 -0.000326    0.07    121.66   
    18. A(C   0,C   1,O   9)          121.45  0.000347   -0.02    121.44   
    19. A(H   7,C   5,H   8)          108.77 -0.000695    0.41    109.18   
    20. A(H   6,C   5,H   8)          110.23  0.004832   -1.36    108.87   
    21. A(C   1,C   5,H   8)          109.50 -0.002833    0.42    109.92   
    22. A(H   6,C   5,H   7)          108.95 -0.000740    0.34    109.28   
    23. A(C   1,C   5,H   7)          109.72  0.001344   -0.03    109.69   
    24. A(C   1,C   5,H   6)          109.66 -0.001875    0.22    109.88   
    25. D(O   9,C   1,C   0,H   3)    -94.80  0.000516   -2.49    -97.29   
    26. D(O   9,C   1,C   0,H   2)     25.60  0.002897   -3.42     22.19   
    27. D(C   5,C   1,C   0,H   2)   -156.76  0.002218   -0.84   -157.60   
    28. D(O   9,C   1,C   0,H   4)    144.43 -0.001436   -1.66    142.77   
    29. D(C   5,C   1,C   0,H   4)    -37.93 -0.002115    0.92    -37.01   
    30. D(C   5,C   1,C   0,H   3)     82.85 -0.000163    0.09     82.93   
    31. D(H   6,C   5,C   1,C   0)    -58.49 -0.001246   -0.05    -58.54   
    32. D(H   8,C   5,C   1,O   9)   -119.79  0.001090    1.26   -118.53   
    33. D(H   8,C   5,C   1,C   0)     62.57  0.001753   -1.32     61.25   
    34. D(H   7,C   5,C   1,O   9)     -0.47 -0.000672    2.00      1.52   
    35. D(H   7,C   5,C   1,C   0)   -178.11 -0.000010   -0.58   -178.69   
    36. D(H   6,C   5,C   1,O   9)    119.15 -0.001908    2.53    121.68   
    ----------------------------------------------------------------------------

         *************************************************************
         *                GEOMETRY OPTIMIZATION CYCLE   2            *
         *************************************************************
---------------------------------
CARTESIAN COORDINATES (ANGSTROEM)
---------------------------------
  C     -2.090185   -1.633419   -0.009565
  C     -0.800393   -0.849868   -0.028483
  H     -2.896814   -1.025378   -0.439705
  H     -2.344201   -1.885533    1.031330
  H     -1.993577   -2.564830   -0.587142
  C      0.480928   -1.642265    0.020605
  H      0.504417   -2.260366    0.932007
  H      1.338916   -0.958006    0.024528
  H      0.548204   -2.301838   -0.858888
  O     -0.797424    0.360793   -0.084687

----------------------------
CARTESIAN COORDINATES (A.U.)
----------------------------
  NO LB      ZA    FRAG     MASS         X           Y           Z
   0 C     6.0000    0    12.011   -3.949878   -3.086715   -0.018076
   1 C     6.0000    0    12.011   -1.512523   -1.606018   -0.053825
   2 H     1.0000    0     1.008   -5.474186   -1.937685   -0.830921
   3 H     1.0000    0     1.008   -4.429897   -3.563141    1.948931
   4 H     1.0000    0     1.008   -3.767314   -4.846826   -1.109538
   5 C     6.0000    0    12.011    0.908821   -3.103430    0.038937
   6 H     1.0000    0     1.008    0.953209   -4.271473    1.761238
   7 H     1.0000    0     1.008    2.530184   -1.810368    0.046351
   8 H     1.0000    0     1.008    1.035955   -4.349843   -1.623063
   9 O     8.0000    0    15.999   -1.506914    0.681799   -0.160035

--------------------------------
INTERNAL COORDINATES (ANGSTROEM)
--------------------------------
 C      0   0   0     0.000000000000     0.00000000     0.00000000
 C      1   0   0     1.509263017377     0.00000000     0.00000000
 H      1   2   0     1.097899795561   109.59875180     0.00000000
 H      1   2   3     1.100703345395   109.14641224   240.53121434
 H      1   2   3     1.100206550368   110.97065950   120.59641819
 C      2   1   3     1.507343164638   116.94368466   202.39912792
 H      6   2   1     1.101478935855   109.88102079   301.46358069
 H      6   2   1     1.097437571389   109.68961858   181.30483059
 H      6   2   1     1.101394956521   109.92138748    61.25306439
 O      2   1   3     1.211968167401   121.41786380    22.18216411

---------------------------
INTERNAL COORDINATES (A.U.)
---------------------------
 C      0   0   0     0.000000000000     0.00000000     0.00000000
 C      1   0   0     2.852093766898     0.00000000     0.00000000
 H      1   2   0     2.074729936098   109.59875180     0.00000000
 H      1   2   3     2.080027877487   109.14641224   240.53121434
 H      1   2   3     2.079089070942   110.97065950   120.59641819
 C      2   1   3     2.848465771005   116.94368466   202.39912792
 H      6   2   1     2.081493531048   109.88102079   301.46358069
 H      6   2   1     2.073856459001   109.68961858   181.30483059
 H      6   2   1     2.081334833107   109.92138748    61.25306439
 O      2   1   3     2.290287919419   121.41786380    22.18216411


Diagonalization of the overlap matrix:
Smallest eigenvalue                        ... 3.352e-03
Time for diagonalization                   ...    0.001 sec
Threshold for overlap eigenvalues          ... 1.000e-08
Number of eigenvalues below threshold      ... 0
Time for construction of square roots      ...    0.001 sec
Total time needed                          ...    0.002 sec

-------------------
DFT GRID GENERATION
-------------------

General Integration Accuracy     IntAcc      ...  4.340
Radial Grid Type                 RadialGrid  ... Gauss-Chebyshev
Angular Grid (max. acc.)         AngularGrid ... Lebedev-110
Angular grid pruning method      GridPruning ... 3 (G Style)
Weight generation scheme         WeightScheme... Becke
Basis function cutoff            BFCut       ...    1.0000e-11
Integration weight cutoff        WCut        ...    1.0000e-14
Grids for H and He will be reduced by one unit

# of grid points (after initial pruning)     ...  11448 (   0.0 sec)
# of grid points (after weights+screening)   ...  10891 (   0.0 sec)
nearest neighbour list constructed           ...    0.0 sec
Grid point re-assignment to atoms done       ...    0.0 sec
Grid point division into batches done        ...    0.0 sec
Reduced shell lists constructed in    0.0 sec

Total number of grid points                  ...    10891
Total number of batches                      ...      174
Average number of points per batch           ...       62
Average number of grid points per atom       ...     1089
Average number of shells per batch           ...    35.03 (83.40%)
Average number of basis functions per batch  ...    71.47 (83.11%)
Average number of large shells per batch     ...    29.49 (84.18%)
Average number of large basis fcns per batch ...    58.74 (82.19%)
Maximum spatial batch extension              ...  18.80, 20.97, 20.92 au
Average spatial batch extension              ...   4.19,  4.22,  4.24 au

Time for grid setup =    0.039 sec

--------------
SCF ITERATIONS
--------------
ITER       Energy         Delta-E        Max-DP      RMS-DP      [F,P]     Damp
               ***  Starting incremental Fock matrix formation  ***
  0   -192.7848812587   0.000000000000 0.00332579  0.00016053  0.0132953 0.7000
                      *** Initiating the SOSCF procedure ***
                      *** Re-Reading the Fockian *** 
                      *** Removing any level shift *** 
ITER      Energy       Delta-E        Grad      Rot      Max-DP    RMS-DP
  1   -192.78509668  -0.0002154250  0.001352  0.001352  0.010216  0.000471
               *** Restarting incremental Fock matrix formation ***
  2   -192.78563823  -0.0005415427  0.001279  0.002916  0.004488  0.000242
  3   -192.78563755   0.0000006721  0.002209  0.002514  0.003322  0.000133
  4   -192.78566700  -0.0000294450  0.000448  0.000729  0.002129  0.000055
  5   -192.78566688   0.0000001239  0.000393  0.000361  0.001103  0.000031
  6   -192.78566964  -0.0000027616  0.000016  0.000024  0.000043  0.000002
  7   -192.78566964  -0.0000000045  0.000008  0.000005  0.000013  0.000001
                  ***Gradient check signals convergence***
              ***Rediagonalizing the Fockian in SOSCF/NRSCF***

               *****************************************************
               *                     SUCCESS                       *
               *           SCF CONVERGED AFTER   8 CYCLES          *
               *****************************************************

Setting up the final grid:

General Integration Accuracy     IntAcc      ...  4.670
Radial Grid Type                 RadialGrid  ... Gauss-Chebyshev
Angular Grid (max. acc.)         AngularGrid ... Lebedev-302
Angular grid pruning method      GridPruning ... 3 (G Style)
Weight generation scheme         WeightScheme... Becke
Basis function cutoff            BFCut       ...    1.0000e-11
Integration weight cutoff        WCut        ...    1.0000e-14
Grids for H and He will be reduced by one unit

# of grid points (after initial pruning)     ...  45212 (   0.0 sec)
# of grid points (after weights+screening)   ...  42625 (   0.0 sec)
nearest neighbour list constructed           ...    0.0 sec
Grid point re-assignment to atoms done       ...    0.0 sec
Grid point division into batches done        ...    0.1 sec
Reduced shell lists constructed in    0.2 sec

Total number of grid points                  ...    42625
Total number of batches                      ...      672
Average number of points per batch           ...       63
Average number of grid points per atom       ...     4263
Average number of shells per batch           ...    32.22 (76.70%)
Average number of basis functions per batch  ...    65.33 (75.96%)
Average number of large shells per batch     ...    26.65 (82.74%)
Average number of large basis fcns per batch ...    52.65 (80.59%)
Maximum spatial batch extension              ...  17.39, 17.53, 21.77 au
Average spatial batch extension              ...   2.76,  2.70,  2.86 au

Final grid set up in    0.2 sec
Final integration                            ... done (   0.2 sec)
Change in XC energy                          ...    -0.000017696
Integrated number of electrons               ...    32.000074582
Previous integrated no of electrons          ...    31.998869537
Total Energy       :         -192.78568734 Eh           -5245.96525 eV
  Last Energy change         ...   -1.2801e-09  Tolerance :   1.0000e-08
  Last MAX-Density change    ...    8.4758e-06  Tolerance :   1.0000e-07
             **** THE GBW FILE WAS UPDATED (.\Acetona.gbw) ****
             **** DENSITY FILE WAS UPDATED (.\Acetona.scfp) ****
             **** ENERGY FILE WAS UPDATED (.\Acetona.en.tmp) ****
             **** THE GBW FILE WAS UPDATED (.\Acetona.gbw) ****
             **** DENSITY FILE WAS UPDATED (.\Acetona.scfp) ****
Total SCF time: 0 days 0 hours 0 min 4 sec 

-------------------------   --------------------
FINAL SINGLE POINT ENERGY      -192.785687339209
-------------------------   --------------------

------------------------------------------------------------------------------
                         ORCA SCF GRADIENT CALCULATION
------------------------------------------------------------------------------

Gradient of the Kohn-Sham DFT energy:
Kohn-Sham wavefunction type      ... RKS
Hartree-Fock exchange scaling    ...    0.250
Number of operators              ...    1
Number of atoms                  ...   10
Basis set dimensions             ...   86
Integral neglect threshold       ... 2.5e-11
Integral primitive cutoff        ... 2.5e-12

Nuclear repulsion gradient       ... done
One Electron Gradient            ... done
Pre-screening matrix             ... done
Starting the two electron gradient:
Two electron gradient done
Exchange-correlation gradient    ... done

------------------
CARTESIAN GRADIENT
------------------

   1   C   :   -0.000731217    0.000412571    0.004520597
   2   C   :   -0.000363196   -0.011293978    0.002631857
   3   H   :    0.000177583   -0.001008080   -0.002186030
   4   H   :    0.000620124    0.001493095   -0.000158659
   5   H   :    0.000860923    0.001449286   -0.002487223
   6   C   :   -0.000800201   -0.002575190   -0.001273559
   7   H   :   -0.000366150    0.002663816    0.001388247
   8   H   :    0.000432035   -0.000318121   -0.000221711
   9   H   :   -0.000022674    0.002070104   -0.001418408
  10   O   :    0.000192772    0.007106496   -0.000795111

Difference to translation invariance:
           :    0.0000000000    0.0000000000    0.0000000000

Norm of the cartesian gradient     ...    0.0157830329
RMS gradient                       ...    0.0028815744
MAX gradient                       ...    0.0112939780

-------
TIMINGS
-------

Total SCF gradient time            ...        2.190 sec

One electron gradient       ....       0.014 sec  (  0.6%)
Prescreening matrices       ....       0.018 sec  (  0.8%)
Two electron gradient       ....       1.070 sec  ( 48.9%)
XC gradient                 ....       0.994 sec  ( 45.4%)
------------------------------------------------------------------------------
                         ORCA GEOMETRY RELAXATION STEP
------------------------------------------------------------------------------

Reading the OPT-File                    .... done
Getting information on internals        .... done
Copying old internal coords+grads       .... done
Making the new internal coordinates     .... (new redundants).... done
Validating the new internal coordinates .... (new redundants).... done
Calculating the B-matrix                .... done
Calculating the G,G- and P matrices     .... done
Transforming gradient to internals      .... done
Projecting the internal gradient        .... done
Number of atoms                         ....  10
Number of internal coordinates          ....  36
Current Energy                          ....  -192.785687339 Eh
Current gradient norm                   ....     0.015783033 Eh/bohr
Maximum allowed component of the step   ....  0.300
Current trust radius                    ....  0.300
Updating the Hessian (BFGS)             .... done
Forming the augmented Hessian           .... done
Diagonalizing the augmented Hessian     .... done
Last element of RFO vector              ....  0.987533917
Lowest eigenvalues of augmented Hessian:
 -0.000742135  0.012028123  0.012457507  0.014546899  0.111839853
Length of the computed step             ....  0.159393372
The final length of the internal step   ....  0.159393372
Converting the step to cartesian space:
 Initial RMS(Int)=    0.0265655620
Transforming coordinates:
 Iter   0:  RMS(Cart)=    0.0318241866 RMS(Int)=    0.0264512658
 Iter   1:  RMS(Cart)=    0.0007930613 RMS(Int)=    0.0005926881
 Iter   2:  RMS(Cart)=    0.0000253138 RMS(Int)=    0.0000191257
 Iter   3:  RMS(Cart)=    0.0000011585 RMS(Int)=    0.0000010279
 Iter   4:  RMS(Cart)=    0.0000000462 RMS(Int)=    0.0000000388
done
Storing new coordinates                 .... done

                                .--------------------.
          ----------------------|Geometry convergence|-------------------------
          Item                value                   Tolerance       Converged
          ---------------------------------------------------------------------
          Energy change      -0.0014852781            0.0000050000      NO
          RMS gradient        0.0017113119            0.0001000000      NO
          MAX gradient        0.0071361640            0.0003000000      NO
          RMS step            0.0265655620            0.0020000000      NO
          MAX step            0.0799633825            0.0040000000      NO
          ........................................................
          Max(Bonds)      0.0095      Max(Angles)    1.46
          Max(Dihed)        4.58      Max(Improp)    0.00
          ---------------------------------------------------------------------

The optimization has not yet converged - more geometry cycles are needed


    ---------------------------------------------------------------------------
                         Redundant Internal Coordinates
                            (Angstroem and degrees)

        Definition                    Value    dE/dq     Step     New-Value
    ----------------------------------------------------------------------------
     1. B(C   1,C   0)                1.5093 -0.002020  0.0045    1.5138   
     2. B(H   2,C   0)                1.0979  0.000169  0.0008    1.0987   
     3. B(H   3,C   0)                1.1007 -0.000635  0.0032    1.1039   
     4. B(H   4,C   0)                1.1002  0.000151  0.0014    1.1016   
     5. B(C   5,C   1)                1.5073 -0.001656  0.0035    1.5108   
     6. B(H   6,C   5)                1.1015 -0.000354  0.0028    1.1043   
     7. B(H   7,C   5)                1.0974  0.000136  0.0007    1.0981   
     8. B(H   8,C   5)                1.1014 -0.000105  0.0023    1.1037   
     9. B(O   9,C   1)                1.2120  0.007136 -0.0095    1.2025   
    10. A(C   1,C   0,H   3)          109.15 -0.000554   -0.14    109.01   
    11. A(C   1,C   0,H   4)          110.97 -0.002674    0.97    111.94   
    12. A(C   1,C   0,H   2)          109.60  0.000616   -0.01    109.59   
    13. A(H   2,C   0,H   4)          109.13 -0.000957    0.96    110.08   
    14. A(H   3,C   0,H   4)          108.83  0.002632   -1.15    107.68   
    15. A(H   2,C   0,H   3)          109.14  0.001006   -0.64    108.50   
    16. A(C   0,C   1,C   5)          116.94  0.001374   -0.32    116.62   
    17. A(C   5,C   1,O   9)          121.64 -0.000888    0.12    121.76   
    18. A(C   0,C   1,O   9)          121.42 -0.000489    0.03    121.45   
    19. A(H   7,C   5,H   8)          109.18 -0.000470    0.39    109.57   
    20. A(H   6,C   5,H   8)          108.87  0.003078   -1.46    107.41   
    21. A(C   1,C   5,H   8)          109.92 -0.001162    0.29    110.21   
    22. A(H   6,C   5,H   7)          109.28 -0.000196    0.34    109.62   
    23. A(C   1,C   5,H   7)          109.69  0.000730   -0.01    109.68   
    24. A(C   1,C   5,H   6)          109.88 -0.001955    0.44    110.32   
    25. D(O   9,C   1,C   0,H   3)    -97.29 -0.000103    0.09    -97.19   
    26. D(O   9,C   1,C   0,H   2)     22.18  0.001157   -0.78     21.41   
    27. D(C   5,C   1,C   0,H   2)   -157.60  0.001907   -4.58   -162.18   
    28. D(O   9,C   1,C   0,H   4)    142.78 -0.001345    0.99    143.77   
    29. D(C   5,C   1,C   0,H   4)    -37.00 -0.000595   -2.81    -39.82   
    30. D(C   5,C   1,C   0,H   3)     82.93  0.000646   -3.71     79.22   
    31. D(H   6,C   5,C   1,C   0)    -58.54 -0.001502    3.69    -54.85   
    32. D(H   8,C   5,C   1,O   9)   -118.53  0.001099   -1.46   -119.99   
    33. D(H   8,C   5,C   1,C   0)     61.25  0.000348    2.35     63.60   
    34. D(H   7,C   5,C   1,O   9)      1.52  0.000253   -0.81      0.72   
    35. D(H   7,C   5,C   1,C   0)   -178.70 -0.000498    3.01   -175.69   
    36. D(H   6,C   5,C   1,O   9)    121.68 -0.000751   -0.12    121.56   
    ----------------------------------------------------------------------------

         *************************************************************
         *                GEOMETRY OPTIMIZATION CYCLE   3            *
         *************************************************************
---------------------------------
CARTESIAN COORDINATES (ANGSTROEM)
---------------------------------
  C     -2.090185   -1.631976   -0.018109
  C     -0.799126   -0.842994   -0.065734
  H     -2.913581   -1.013933   -0.401640
  H     -2.310765   -1.897672    1.030427
  H     -2.021287   -2.568904   -0.593426
  C      0.483508   -1.636522    0.022111
  H      0.481048   -2.270547    0.926267
  H      1.340877   -0.951164    0.054706
  H      0.578307   -2.305869   -0.850264
  O     -0.798926    0.358872   -0.104337

----------------------------
CARTESIAN COORDINATES (A.U.)
----------------------------
  NO LB      ZA    FRAG     MASS         X           Y           Z
   0 C     6.0000    0    12.011   -3.949878   -3.083988   -0.034220
   1 C     6.0000    0    12.011   -1.510130   -1.593028   -0.124220
   2 H     1.0000    0     1.008   -5.505869   -1.916056   -0.758990
   3 H     1.0000    0     1.008   -4.366713   -3.586080    1.947226
   4 H     1.0000    0     1.008   -3.819679   -4.854526   -1.121413
   5 C     6.0000    0    12.011    0.913698   -3.092579    0.041784
   6 H     1.0000    0     1.008    0.909049   -4.290711    1.750390
   7 H     1.0000    0     1.008    2.533891   -1.797439    0.103378
   8 H     1.0000    0     1.008    1.092841   -4.357461   -1.606766
   9 O     8.0000    0    15.999   -1.509751    0.678170   -0.197169

--------------------------------
INTERNAL COORDINATES (ANGSTROEM)
--------------------------------
 C      0   0   0     0.000000000000     0.00000000     0.00000000
 C      1   0   0     1.513801346880     0.00000000     0.00000000
 H      1   2   0     1.098659574739   109.57274166     0.00000000
 H      1   2   3     1.103937299257   109.01005343   241.40707062
 H      1   2   3     1.101622679796   111.93181175   122.38453311
 C      2   1   3     1.510812712001   116.64589349   197.81067978
 H      6   2   1     1.104304951464   110.32048608   305.15734570
 H      6   2   1     1.098116861057   109.67966016   184.31288447
 H      6   2   1     1.103653233802   110.21274243    63.60135281
 O      2   1   3     1.202485933817   121.47158848    21.39602586

---------------------------
INTERNAL COORDINATES (A.U.)
---------------------------
 C      0   0   0     0.000000000000     0.00000000     0.00000000
 C      1   0   0     2.860669966765     0.00000000     0.00000000
 H      1   2   0     2.076165710667   109.57274166     0.00000000
 H      1   2   3     2.086139164616   109.01005343   241.40707062
 H      1   2   3     2.081765167732   111.93181175   122.38453311
 C      2   1   3     2.855022265329   116.64589349   197.81067978
 H      6   2   1     2.086833926601   110.32048608   305.15734570
 H      6   2   1     2.075140130439   109.67966016   184.31288447
 H      6   2   1     2.085602358703   110.21274243    63.60135281
 O      2   1   3     2.272369094806   121.47158848    21.39602586


Diagonalization of the overlap matrix:
Smallest eigenvalue                        ... 3.448e-03
Time for diagonalization                   ...    0.001 sec
Threshold for overlap eigenvalues          ... 1.000e-08
Number of eigenvalues below threshold      ... 0
Time for construction of square roots      ...    0.000 sec
Total time needed                          ...    0.001 sec

-------------------
DFT GRID GENERATION
-------------------

General Integration Accuracy     IntAcc      ...  4.340
Radial Grid Type                 RadialGrid  ... Gauss-Chebyshev
Angular Grid (max. acc.)         AngularGrid ... Lebedev-110
Angular grid pruning method      GridPruning ... 3 (G Style)
Weight generation scheme         WeightScheme... Becke
Basis function cutoff            BFCut       ...    1.0000e-11
Integration weight cutoff        WCut        ...    1.0000e-14
Grids for H and He will be reduced by one unit

# of grid points (after initial pruning)     ...  11448 (   0.0 sec)
# of grid points (after weights+screening)   ...  10897 (   0.0 sec)
nearest neighbour list constructed           ...    0.0 sec
Grid point re-assignment to atoms done       ...    0.0 sec
Grid point division into batches done        ...    0.0 sec
Reduced shell lists constructed in    0.0 sec

Total number of grid points                  ...    10897
Total number of batches                      ...      174
Average number of points per batch           ...       62
Average number of grid points per atom       ...     1090
Average number of shells per batch           ...    34.98 (83.29%)
Average number of basis functions per batch  ...    71.31 (82.92%)
Average number of large shells per batch     ...    29.33 (83.85%)
Average number of large basis fcns per batch ...    58.31 (81.77%)
Maximum spatial batch extension              ...  18.80, 19.48, 23.44 au
Average spatial batch extension              ...   4.18,  4.20,  4.35 au

Time for grid setup =    0.038 sec

--------------
SCF ITERATIONS
--------------
ITER       Energy         Delta-E        Max-DP      RMS-DP      [F,P]     Damp
               ***  Starting incremental Fock matrix formation  ***
  0   -192.7850091901   0.000000000000 0.00283623  0.00014519  0.0124421 0.7000
                      *** Initiating the SOSCF procedure ***
                      *** Re-Reading the Fockian *** 
                      *** Removing any level shift *** 
ITER      Energy       Delta-E        Grad      Rot      Max-DP    RMS-DP
  1   -192.78522901  -0.0002198226  0.001085  0.001085  0.008561  0.000437
               *** Restarting incremental Fock matrix formation ***
  2   -192.78581787  -0.0005888589  0.000753  0.001895  0.002937  0.000171
  3   -192.78582679  -0.0000089211  0.001483  0.001839  0.002433  0.000103
  4   -192.78583729  -0.0000105017  0.000448  0.000436  0.001165  0.000044
  5   -192.78583923  -0.0000019307  0.000171  0.000163  0.000594  0.000020
  6   -192.78583974  -0.0000005122  0.000044  0.000059  0.000104  0.000008
  7   -192.78583980  -0.0000000641  0.000011  0.000017  0.000048  0.000002
  8   -192.78583980  -0.0000000033  0.000004  0.000005  0.000011  0.000001
                  ***Gradient check signals convergence***
              ***Rediagonalizing the Fockian in SOSCF/NRSCF***

               *****************************************************
               *                     SUCCESS                       *
               *           SCF CONVERGED AFTER   9 CYCLES          *
               *****************************************************

Setting up the final grid:

General Integration Accuracy     IntAcc      ...  4.670
Radial Grid Type                 RadialGrid  ... Gauss-Chebyshev
Angular Grid (max. acc.)         AngularGrid ... Lebedev-302
Angular grid pruning method      GridPruning ... 3 (G Style)
Weight generation scheme         WeightScheme... Becke
Basis function cutoff            BFCut       ...    1.0000e-11
Integration weight cutoff        WCut        ...    1.0000e-14
Grids for H and He will be reduced by one unit

# of grid points (after initial pruning)     ...  45212 (   0.0 sec)
# of grid points (after weights+screening)   ...  42629 (   0.0 sec)
nearest neighbour list constructed           ...    0.0 sec
Grid point re-assignment to atoms done       ...    0.0 sec
Grid point division into batches done        ...    0.1 sec
Reduced shell lists constructed in    0.2 sec

Total number of grid points                  ...    42629
Total number of batches                      ...      671
Average number of points per batch           ...       63
Average number of grid points per atom       ...     4263
Average number of shells per batch           ...    32.18 (76.62%)
Average number of basis functions per batch  ...    65.22 (75.84%)
Average number of large shells per batch     ...    26.61 (82.69%)
Average number of large basis fcns per batch ...    52.63 (80.69%)
Maximum spatial batch extension              ...  17.78, 17.54, 19.64 au
Average spatial batch extension              ...   2.76,  2.70,  2.77 au

Final grid set up in    0.2 sec
Final integration                            ... done (   0.2 sec)
Change in XC energy                          ...    -0.000082756
Integrated number of electrons               ...    32.000056759
Previous integrated no of electrons          ...    31.998780874
Total Energy       :         -192.78592256 Eh           -5245.97165 eV
  Last Energy change         ...   -3.6601e-10  Tolerance :   1.0000e-08
  Last MAX-Density change    ...    4.2374e-06  Tolerance :   1.0000e-07
             **** THE GBW FILE WAS UPDATED (.\Acetona.gbw) ****
             **** DENSITY FILE WAS UPDATED (.\Acetona.scfp) ****
             **** ENERGY FILE WAS UPDATED (.\Acetona.en.tmp) ****
             **** THE GBW FILE WAS UPDATED (.\Acetona.gbw) ****
             **** DENSITY FILE WAS UPDATED (.\Acetona.scfp) ****
Total SCF time: 0 days 0 hours 0 min 4 sec 

-------------------------   --------------------
FINAL SINGLE POINT ENERGY      -192.785922561609
-------------------------   --------------------

------------------------------------------------------------------------------
                         ORCA SCF GRADIENT CALCULATION
------------------------------------------------------------------------------

Gradient of the Kohn-Sham DFT energy:
Kohn-Sham wavefunction type      ... RKS
Hartree-Fock exchange scaling    ...    0.250
Number of operators              ...    1
Number of atoms                  ...   10
Basis set dimensions             ...   86
Integral neglect threshold       ... 2.5e-11
Integral primitive cutoff        ... 2.5e-12

Nuclear repulsion gradient       ... done
One Electron Gradient            ... done
Pre-screening matrix             ... done
Starting the two electron gradient:
Two electron gradient done
Exchange-correlation gradient    ... done

------------------
CARTESIAN GRADIENT
------------------

   1   C   :   -0.000104521    0.000796562    0.003404296
   2   C   :    0.000389527    0.006486746   -0.006698101
   3   H   :   -0.000348773    0.000161595   -0.000927793
   4   H   :   -0.000702476    0.000051649    0.001074437
   5   H   :    0.000499149   -0.000447418   -0.001289936
   6   C   :   -0.000389266    0.000445734    0.001144793
   7   H   :    0.000221634   -0.000129825    0.001761283
   8   H   :    0.000579033    0.000374019    0.000065355
   9   H   :   -0.000214867    0.000082290   -0.001334308
  10   O   :    0.000070560   -0.007821351    0.002799974

Difference to translation invariance:
           :    0.0000000000    0.0000000000    0.0000000000

Norm of the cartesian gradient     ...    0.0134261379
RMS gradient                       ...    0.0024512662
MAX gradient                       ...    0.0078213515

-------
TIMINGS
-------

Total SCF gradient time            ...        2.185 sec

One electron gradient       ....       0.015 sec  (  0.7%)
Prescreening matrices       ....       0.017 sec  (  0.8%)
Two electron gradient       ....       1.065 sec  ( 48.7%)
XC gradient                 ....       0.994 sec  ( 45.5%)
------------------------------------------------------------------------------
                         ORCA GEOMETRY RELAXATION STEP
------------------------------------------------------------------------------

Reading the OPT-File                    .... done
Getting information on internals        .... done
Copying old internal coords+grads       .... done
Making the new internal coordinates     .... (new redundants).... done
Validating the new internal coordinates .... (new redundants).... done
Calculating the B-matrix                .... done
Calculating the G,G- and P matrices     .... done
Transforming gradient to internals      .... done
Projecting the internal gradient        .... done
Number of atoms                         ....  10
Number of internal coordinates          ....  36
Current Energy                          ....  -192.785922562 Eh
Current gradient norm                   ....     0.013426138 Eh/bohr
Maximum allowed component of the step   ....  0.300
Current trust radius                    ....  0.300
Updating the Hessian (BFGS)             .... done
Forming the augmented Hessian           .... done
Diagonalizing the augmented Hessian     .... done
Last element of RFO vector              ....  0.994326028
Lowest eigenvalues of augmented Hessian:
 -0.000327549  0.010373835  0.012457489  0.025880266  0.088447769
Length of the computed step             ....  0.106982533
The final length of the internal step   ....  0.106982533
Converting the step to cartesian space:
 Initial RMS(Int)=    0.0178304222
Transforming coordinates:
 Iter   0:  RMS(Cart)=    0.0107997199 RMS(Int)=    0.0178297266
 Iter   1:  RMS(Cart)=    0.0002457781 RMS(Int)=    0.0001618750
 Iter   2:  RMS(Cart)=    0.0000058478 RMS(Int)=    0.0000072001
 Iter   3:  RMS(Cart)=    0.0000001645 RMS(Int)=    0.0000001243
 Iter   4:  RMS(Cart)=    0.0000000045 RMS(Int)=    0.0000000055
done
Storing new coordinates                 .... done

                                .--------------------.
          ----------------------|Geometry convergence|-------------------------
          Item                value                   Tolerance       Converged
          ---------------------------------------------------------------------
          Energy change      -0.0002352224            0.0000050000      NO
          RMS gradient        0.0015185826            0.0001000000      NO
          MAX gradient        0.0079071401            0.0003000000      NO
          RMS step            0.0178304222            0.0020000000      NO
          MAX step            0.0515898420            0.0040000000      NO
          ........................................................
          Max(Bonds)      0.0015      Max(Angles)    0.58
          Max(Dihed)        2.96      Max(Improp)    0.00
          ---------------------------------------------------------------------

The optimization has not yet converged - more geometry cycles are needed


[...]
     12       0.000000   0.000000   0.000000   0.000000   0.000000   0.000000
     13       0.000000   0.000000   0.000000   0.000000   0.000000   0.000000
     14       0.000000   0.000000   0.000000   0.000000   0.000000   0.000000
     15       0.000000   0.000000   0.000000   0.000000   0.000000   0.000000
     16       0.000000   0.000000   0.000000   0.000000   0.000000   0.000000
     17       0.000000   0.000000   0.000000   0.000000   0.000000   0.000000
     18       0.000000   0.000000   0.000000   0.000000   0.000000   0.000000
     19       0.000000   0.000000   0.000000   0.000000   0.000000   0.000000
     20       0.000000   0.000000   0.000000   0.000000   0.000000   0.000000
     21       0.000000   0.000000   0.000000   0.000000   0.000000   0.000000
     22       0.000000   0.000000   0.000000   0.000000   0.000000   0.000000
     23       0.000000   0.000000   0.000000   0.000000   0.000000   0.000000
     24       0.000000   0.000000   0.000000   0.000000   0.000000   0.000000
     25       0.000000   0.000000   0.000000   0.000000   0.000000   0.000000
     26       0.000000   0.000000   0.000000   0.000000   0.000000   0.000000
     27       0.000000   0.000000   0.000000   0.000000   0.000000   0.000000
     28       0.000000   0.000000   0.000000   0.000000   0.000000   0.000000
     29       0.000000   0.000000   0.000000   0.000000   0.000000   0.000000
                  6          7          8          9         10         11    
      0      -0.001496   0.000975   0.150055  -0.004318  -0.118450   0.246363
      1       0.003434  -0.005448  -0.094379  -0.002879  -0.147595   0.116595
      2       0.019592  -0.038140   0.021197   0.016917   0.015974   0.007024
      3      -0.000021  -0.000636   0.000760   0.008397  -0.134611  -0.000554
      4       0.000043  -0.003193   0.125452  -0.037951   0.002170  -0.127493
      5      -0.000151  -0.022873  -0.018202  -0.257882   0.009112   0.018646
      6       0.006682   0.005652  -0.077446   0.000743  -0.356931   0.422754
      7      -0.030427  -0.043800  -0.376992   0.039814  -0.441377   0.316176
      8      -0.340523  -0.398574   0.053930   0.312539   0.041999  -0.059983
      9      -0.147802  -0.150701   0.381479   0.349381   0.096759   0.129668
     10       0.348886   0.336070  -0.113219   0.157457  -0.188818   0.112274
     11       0.220904   0.161923   0.025714   0.142737   0.007197  -0.012104
     12       0.135882   0.154208   0.352768  -0.390653   0.100871   0.244397
     13      -0.300382  -0.307956  -0.125790  -0.136310  -0.174987   0.179417
     14       0.287830   0.229421   0.041247   0.157014   0.029673  -0.042674
     15       0.001450   0.000466  -0.151120  -0.004372  -0.116960  -0.244970
     16      -0.002559  -0.006027  -0.094784   0.007517   0.147358   0.112911
     17      -0.019814  -0.038001   0.007021   0.015625  -0.027579  -0.040767
     18      -0.139188   0.156754  -0.354551  -0.388036   0.102541  -0.243185
     19      -0.367762   0.359527  -0.130507   0.180405   0.174332   0.185892
     20      -0.188870   0.131813  -0.005171   0.109367  -0.021567  -0.011962
     21      -0.007341   0.006556   0.072870  -0.000022  -0.351632  -0.417965
     22       0.068625  -0.074205  -0.377156   0.051451   0.438660   0.324104
     23       0.334236  -0.395264   0.060004   0.309827  -0.088749  -0.034714
     24       0.152416  -0.157151  -0.382125   0.346018   0.098284  -0.129459
     25       0.267579  -0.274332  -0.109945  -0.113727   0.182150   0.113073
     26      -0.311077   0.252577   0.005430   0.183948  -0.047372  -0.020920
     27       0.000009  -0.001569   0.000670   0.005422   0.297326  -0.001021
     28       0.000160   0.011308   0.125553   0.013725  -0.000819  -0.154138
     29       0.000122   0.075474  -0.018933   0.092593   0.006837   0.022823
                 12         13         14         15         16         17    
      0      -0.016780   0.022100   0.062251   0.006379   0.054293   0.089421
      1       0.007623   0.133171  -0.118663  -0.017162  -0.048210   0.062288
      2       0.095532  -0.016660   0.020279  -0.129871   0.008524  -0.003035
      3      -0.000214  -0.089988   0.000305  -0.009585  -0.285687  -0.002027
      4       0.006399  -0.000725   0.045809   0.035475   0.000036  -0.003577
      5      -0.001266  -0.007883  -0.007573   0.238756  -0.011856   0.000340
      6      -0.035711  -0.277177   0.394251   0.009991   0.396468  -0.191426
      7      -0.055216  -0.244036   0.299526   0.039067   0.368514  -0.284300
      8      -0.227481   0.031777  -0.038155   0.288241  -0.038162   0.011329
      9      -0.374330   0.428577  -0.348476   0.300014   0.141379  -0.330192
     10      -0.255272   0.053316  -0.001681   0.285115   0.190597  -0.208575
     11      -0.096669  -0.036825   0.060074   0.084320   0.142536  -0.187807
     12       0.396021   0.384269  -0.310195  -0.332504   0.151433  -0.347526
     13       0.219352   0.044467   0.014091  -0.256017   0.173127  -0.164351
     14      -0.121239   0.047216  -0.081069   0.111437  -0.175277   0.206885
     15       0.016915   0.020284  -0.063637   0.005710   0.055128  -0.085897
     16      -0.020637  -0.132314  -0.118695  -0.022117   0.047565   0.060368
     17      -0.093465   0.022779   0.015650  -0.129348  -0.005523  -0.015055
     18      -0.392427   0.383632   0.311794  -0.326652   0.149867   0.340057
     19       0.249500  -0.033585   0.031055   0.281687  -0.216338  -0.217807
     20       0.050870   0.059891   0.075027   0.031642  -0.116241  -0.146252
     21       0.034179  -0.274783  -0.391217   0.005058   0.391035   0.187110
     22       0.012869   0.246537   0.302571   0.048785  -0.367337  -0.274491
     23       0.234000  -0.043138  -0.055442   0.287406   0.071732   0.071230
     24       0.372053   0.426680   0.346595   0.300311   0.136976   0.320952
     25      -0.221114  -0.065650  -0.020827  -0.252973  -0.141507  -0.146773
     26       0.168479  -0.018805  -0.057146   0.164888   0.190192   0.237381
     27       0.000073  -0.031752   0.000638   0.000879   0.046193   0.000201
     28       0.008109  -0.000165   0.104441  -0.006322   0.000013  -0.007724
     29      -0.001103  -0.001203  -0.015195  -0.045621   0.001936   0.001181
                 18         19         20         21         22         23    
      0      -0.143337  -0.023396   0.021423   0.026929  -0.005842   0.011101
      1      -0.058199   0.025551  -0.009540  -0.015910   0.000959   0.044355
      2       0.000102  -0.003822   0.033397  -0.029545   0.031972  -0.006416
      3       0.164866  -0.026095  -0.000620   0.000019   0.006557  -0.004654
      4      -0.000427   0.000191   0.007061   0.007375   0.004864  -0.740335
      5       0.004466   0.001987  -0.000427  -0.001213   0.033422   0.109246
      6       0.116964   0.179580  -0.112770  -0.135740   0.013440  -0.143602
      7       0.265810   0.268208  -0.218633  -0.161670  -0.038409  -0.187141
      8       0.009163  -0.011401  -0.365159   0.382263  -0.493940   0.016833
      9       0.366069   0.100181   0.143103  -0.319113   0.339634   0.073074
     10       0.130380  -0.379898   0.150848   0.341912  -0.101151   0.121740
     11       0.147591  -0.234216   0.126406   0.165490  -0.014382   0.052595
     12       0.402888   0.097068  -0.304029   0.125830  -0.315744   0.059629
     13       0.087308  -0.333840   0.296585   0.136837   0.097258   0.102284
     14      -0.147968   0.304548  -0.230095  -0.155767  -0.051018  -0.069548
     15      -0.144913  -0.021566  -0.023123  -0.027828  -0.005516  -0.010427
     16       0.058898  -0.024113  -0.020088  -0.006705   0.009156   0.044315
     17      -0.017820   0.004936  -0.028042   0.032338   0.032070  -0.006695
     18       0.412814   0.081969   0.303190  -0.118412  -0.328063  -0.059625
     19      -0.137091   0.380875   0.370033   0.185721  -0.113522   0.119227
     20      -0.118358   0.185221   0.148479   0.112594  -0.025725   0.037264
     21       0.118024   0.165652   0.120626   0.137345   0.013042   0.141293
     22      -0.259528  -0.248987  -0.124375  -0.270787  -0.106357  -0.185900
     23       0.089830   0.045740   0.400927  -0.311812  -0.499954   0.037706
     24       0.372014   0.107100  -0.123640   0.321882   0.348724  -0.070566
     25      -0.091298   0.282239   0.131443   0.279467   0.087950   0.102522
     26       0.187965  -0.317925  -0.188332  -0.260455  -0.038439  -0.086027
     27      -0.020071   0.007255   0.000073  -0.000082  -0.000871   0.002975
     28       0.000074   0.000755  -0.021232  -0.020784  -0.000268   0.484645
     29      -0.000650  -0.000562   0.003090   0.003078  -0.002387  -0.071467
                 24         25         26         27         28         29    
      0      -0.027000   0.021367  -0.003447   0.002492   0.025329  -0.049919
      1      -0.031081   0.023991   0.008101  -0.005784  -0.033930   0.066752
      2       0.000850  -0.000553   0.074568  -0.052840   0.005140  -0.009973
      3       0.003139   0.000382   0.000038  -0.000199   0.000271  -0.000062
      4       0.000070  -0.000766   0.000169  -0.000069   0.000967   0.003004
      5       0.000057   0.000128   0.000095  -0.000698  -0.000203  -0.000426
      6       0.265367  -0.212565   0.024077  -0.017614  -0.318369   0.621931
      7      -0.220224   0.174044  -0.018186   0.013602   0.254662  -0.497390
      8       0.026102  -0.020791   0.014284  -0.008805  -0.030816   0.060204
      9       0.025183  -0.018619   0.032551  -0.022943   0.009681  -0.021110
     10       0.246752  -0.190647   0.305598  -0.216489   0.071722  -0.144957
     11      -0.421658   0.325941  -0.489234   0.346039  -0.125641   0.253531
     12       0.011801  -0.008125  -0.016555   0.011859   0.005473  -0.011805
     13       0.335610  -0.260373  -0.385634   0.273337   0.079298  -0.162387
     14       0.386209  -0.299386  -0.419901   0.297897   0.094986  -0.194025
     15      -0.020902  -0.027300   0.002414   0.003424   0.050464   0.025693
     16       0.023387   0.029736  -0.009744  -0.013704   0.066492   0.033750
     17      -0.006090  -0.007824  -0.052226  -0.073781  -0.009666  -0.005002
     18       0.005586   0.005796   0.007850   0.011255   0.009361   0.005252
     19      -0.162042  -0.207261  -0.176615  -0.249521  -0.100251  -0.053040
     20       0.360333   0.460391   0.365331   0.516626   0.234508   0.123594
     21       0.210655   0.278425  -0.015282  -0.021860  -0.627319  -0.316528
     22       0.169627   0.221264  -0.013500  -0.019105  -0.485813  -0.245072
     23      -0.029473  -0.038194  -0.006746  -0.007524   0.083044   0.041877
     24       0.017828   0.021672  -0.020716  -0.029046   0.018755   0.010538
     25      -0.280311  -0.357545   0.306345   0.432049  -0.212690  -0.110677
     26      -0.259593  -0.331284   0.268061   0.377518  -0.201079  -0.104530
     27      -0.000192  -0.000028  -0.000005   0.000015  -0.000248   0.000072
     28       0.000090  -0.000664  -0.000028  -0.000053  -0.000407  -0.001249
     29      -0.000011   0.000102   0.000054  -0.000294   0.000084   0.000180


-----------
IR SPECTRUM
-----------

 Mode    freq (cm**-1)   T**2         TX         TY         TZ
-------------------------------------------------------------------
   6:        34.72    0.007550  (  0.017487  -0.085110   0.000442)
   7:       135.74    0.248254  (  0.106338   0.058277   0.483270)
   8:       381.86    1.248790  ( -0.006451  -1.106229   0.158135)
   9:       489.98    0.108417  ( -0.130422  -0.029027  -0.300940)
  10:       541.69   15.197561  ( -3.895635  -0.000433  -0.146936)
  11:       811.34    1.159963  ( -0.002168  -1.065565   0.156618)
  12:       859.47    0.007157  (  0.003305  -0.083916   0.010188)
  13:       882.86    3.621234  ( -1.892582  -0.014780  -0.197859)
  14:      1068.37    0.092552  ( -0.006348   0.300184  -0.049007)
  15:      1104.57    5.853980  (  0.064612   0.353649   2.392643)
  16:      1237.23   47.069114  ( -6.851983   0.009418  -0.345471)
  17:      1355.51   20.779676  ( -0.161383  -4.500849   0.704266)
  18:      1379.96  107.705095  ( 10.345222  -0.004421   0.825503)
  19:      1423.23    0.857870  (  0.905701  -0.162960  -0.104978)
  20:      1433.64   12.815416  (  0.034136   3.525800  -0.618856)
  21:      1436.17   11.175679  (  0.054941   3.308134  -0.478445)
  22:      1456.92   24.375097  (  0.587395  -0.735965  -4.846485)
  23:      1872.85  183.117842  ( -0.083762 -13.387127   1.973740)
  24:      3055.12    0.614046  ( -0.754308  -0.212093  -0.009097)
  25:      3060.60    2.676282  ( -0.103254   1.616787  -0.227202)
  26:      3142.21    0.317045  ( -0.057507  -0.232163   0.509743)
  27:      3148.12    7.534030  (  0.256226  -0.411515  -2.701672)
  28:      3197.25    4.399470  (  2.046088   0.459800   0.039714)
  29:      3197.79    2.331561  ( -0.651206   1.358830  -0.247127)

The first frequency considered to be a vibration is 6
The total number of vibrations considered is 24


--------------------------
THERMOCHEMISTRY AT 298.15K
--------------------------

Temperature         ... 298.15 K
Pressure            ... 1.00 atm
Total Mass          ... 58.08 AMU

Throughout the following assumptions are being made:
  (1) The electronic state is orbitally nondegenerate
  (2) There are no thermally accessible electronically excited states
  (3) Hindered rotations indicated by low frequency modes are not
      treated as such but are treated as vibrations and this may
      cause some error
  (4) All equations used are the standard statistical mechanics
      equations for an ideal gas
  (5) All vibrations are strictly harmonic

freq.      34.72  E(vib)   ...       0.54 
freq.     135.74  E(vib)   ...       0.42 
freq.     381.86  E(vib)   ...       0.21 
freq.     489.98  E(vib)   ...       0.15 
freq.     541.69  E(vib)   ...       0.12 
freq.     811.34  E(vib)   ...       0.05 
freq.     859.47  E(vib)   ...       0.04 
freq.     882.86  E(vib)   ...       0.04 
freq.    1068.37  E(vib)   ...       0.02 
freq.    1104.57  E(vib)   ...       0.02 
freq.    1237.23  E(vib)   ...       0.01 
freq.    1355.51  E(vib)   ...       0.01 
freq.    1379.96  E(vib)   ...       0.01 
freq.    1423.23  E(vib)   ...       0.00 
freq.    1433.64  E(vib)   ...       0.00 
freq.    1436.17  E(vib)   ...       0.00 
freq.    1456.92  E(vib)   ...       0.00 
freq.    1872.85  E(vib)   ...       0.00 
freq.    3055.12  E(vib)   ...       0.00 
freq.    3060.60  E(vib)   ...       0.00 
freq.    3142.21  E(vib)   ...       0.00 
freq.    3148.12  E(vib)   ...       0.00 
freq.    3197.25  E(vib)   ...       0.00 
freq.    3197.79  E(vib)   ...       0.00 

------------
INNER ENERGY
------------

The inner energy is: U= E(el) + E(ZPE) + E(vib) + E(rot) + E(trans)
    E(el)   - is the total energy from the electronic structure calculation
              = E(kin-el) + E(nuc-el) + E(el-el) + E(nuc-nuc)
    E(ZPE)  - the the zero temperature vibrational energy from the frequency calculation
    E(vib)  - the the finite temperature correction to E(ZPE) due to population
              of excited vibrational states
    E(rot)  - is the rotational thermal energy
    E(trans)- is the translational thermal energy

Summary of contributions to the inner energy U:
Electronic energy                ...   -192.78627389 Eh
Zero point energy                ...      0.08362507 Eh      52.48 kcal/mol
Thermal vibrational correction   ...      0.00259637 Eh       1.63 kcal/mol
Thermal rotational correction    ...      0.00141627 Eh       0.89 kcal/mol
Thermal translational correction ...      0.00141627 Eh       0.89 kcal/mol
-----------------------------------------------------------------------
Total thermal energy                   -192.69721990 Eh


Summary of corrections to the electronic energy:
(perhaps to be used in another calculation)
Total thermal correction                  0.00542892 Eh       3.41 kcal/mol
Non-thermal (ZPE) correction              0.08362507 Eh      52.48 kcal/mol
-----------------------------------------------------------------------
Total correction                          0.08905399 Eh      55.88 kcal/mol


--------
ENTHALPY
--------

The enthalpy is H = U + kB*T
                kB is Boltzmann's constant
Total free energy                 ...   -192.69721990 Eh 
Thermal Enthalpy correction       ...      0.00094421 Eh       0.59 kcal/mol
-----------------------------------------------------------------------
Total Enthalpy                    ...   -192.69627569 Eh


Note: Only C1 symmetry has been detected, increase convergence thresholds 
      if your molecule has a higher symmetry. Symmetry factor of 1.0 is   
      used for the rotational entropy correction. 
 

Note: Rotational entropy computed according to Herzberg 
Infrared and Raman Spectra, Chapter V,1, Van Nostrand Reinhold, 1945 
Point Group:  C1, Symmetry Number:   1  
Rotational constants in cm-1:     0.339856     0.284840     0.164500 

Vibrational entropy computed according to the QRRHO of S. Grimme
Chem.Eur.J. 2012 18 9955


-------
ENTROPY
-------

The entropy contributions are T*S = T*(S(el)+S(vib)+S(rot)+S(trans))
     S(el)   - electronic entropy
     S(vib)  - vibrational entropy
     S(rot)  - rotational entropy
     S(trans)- translational entropy
The entropies will be listed as mutliplied by the temperature to get
units of energy

Electronic entropy                ...      0.00000000 Eh      0.00 kcal/mol
Vibrational entropy               ...      0.00465062 Eh      2.92 kcal/mol
Rotational entropy                ...      0.01146522 Eh      7.19 kcal/mol
Translational entropy             ...      0.01810171 Eh     11.36 kcal/mol
-----------------------------------------------------------------------
Final entropy term                ...      0.03421755 Eh     21.47 kcal/mol

In case the symmetry of your molecule has not been determined correctly
or in case you have a reason to use a different symmetry number we print 
out the resulting rotational entropy values for sn=1,12 :
 --------------------------------------------------------
|  sn= 1 | S(rot)=       0.01146522 Eh      7.19 kcal/mol|
|  sn= 2 | S(rot)=       0.01081076 Eh      6.78 kcal/mol|
|  sn= 3 | S(rot)=       0.01042793 Eh      6.54 kcal/mol|
|  sn= 4 | S(rot)=       0.01015631 Eh      6.37 kcal/mol|
|  sn= 5 | S(rot)=       0.00994562 Eh      6.24 kcal/mol|
|  sn= 6 | S(rot)=       0.00977348 Eh      6.13 kcal/mol|
|  sn= 7 | S(rot)=       0.00962793 Eh      6.04 kcal/mol|
|  sn= 8 | S(rot)=       0.00950185 Eh      5.96 kcal/mol|
|  sn= 9 | S(rot)=       0.00939064 Eh      5.89 kcal/mol|
|  sn=10 | S(rot)=       0.00929116 Eh      5.83 kcal/mol|
|  sn=11 | S(rot)=       0.00920117 Eh      5.77 kcal/mol|
|  sn=12 | S(rot)=       0.00911902 Eh      5.72 kcal/mol|
 --------------------------------------------------------


-------------------
GIBBS FREE ENERGY
-------------------

The Gibbs free energy is G = H - T*S

Total enthalpy                    ...   -192.69627569 Eh 
Total entropy correction          ...     -0.03421755 Eh    -21.47 kcal/mol
-----------------------------------------------------------------------
Final Gibbs free energy         ...   -192.73049325 Eh

For completeness - the Gibbs free energy minus the electronic energy
G-E(el)                           ...      0.05578064 Eh     35.00 kcal/mol


Timings for individual modules:

Sum of individual times         ...      270.085 sec (=   4.501 min)
GTO integral calculation        ...       22.986 sec (=   0.383 min)   8.5 %
SCF iterations                  ...       98.107 sec (=   1.635 min)  36.3 %
SCF Gradient evaluation         ...       64.003 sec (=   1.067 min)  23.7 %
Geometry relaxation             ...        7.751 sec (=   0.129 min)   2.9 %
Analytical frequency calculation...       77.238 sec (=   1.287 min)  28.6 %
                             ****ORCA TERMINATED NORMALLY****
TOTAL RUN TIME: 0 days 0 hours 4 minutes 31 seconds 132 msec
