10
* (null), Energy   -1000.0000000
C    -2.088921   -1.629462   -0.035933   -0.002991    0.006868    0.039185
C    -0.801078   -0.841472   -0.094282   -0.000041    0.000086   -0.000302
H    -2.944179   -0.947511   -0.119139    0.013364   -0.060854   -0.681047
H    -2.154936   -2.200320    0.904047   -0.295604    0.697773    0.441808
H    -2.122997   -2.363918   -0.857226    0.271764   -0.600763    0.575660
C     0.477054   -1.628132    0.080633    0.002900   -0.005118   -0.039629
H     0.500986   -2.094439    1.078821   -0.278376   -0.735524   -0.377739
H     1.340724   -0.961139   -0.032584   -0.014682    0.137250    0.668471
H     0.536939   -2.446917   -0.653996    0.304833    0.535159   -0.622154
O    -0.793721    0.352600   -0.270341    0.000018    0.000320    0.000245
10
* Frequency(6)   34.7189
C    -2.089261   -1.628681   -0.031480   -0.002991    0.006868    0.039185
C    -0.801083   -0.841462   -0.094316   -0.000041    0.000086   -0.000302
H    -2.942660   -0.954427   -0.196536    0.013364   -0.060854   -0.681047
H    -2.188530   -2.121022    0.954256   -0.295604    0.697773    0.441808
H    -2.092113   -2.432192   -0.791805    0.271764   -0.600763    0.575660
C     0.477383   -1.628714    0.076130    0.002900   -0.005118   -0.039629
H     0.469350   -2.178028    1.035893   -0.278376   -0.735524   -0.377739
H     1.339056   -0.945541    0.043384   -0.014682    0.137250    0.668471
H     0.571581   -2.386099   -0.724701    0.304833    0.535159   -0.622154
O    -0.793719    0.352636   -0.270313    0.000018    0.000320    0.000245
10
* Frequency(6)   34.7189
C    -2.089564   -1.627985   -0.027509   -0.002991    0.006868    0.039185
C    -0.801087   -0.841454   -0.094347   -0.000041    0.000086   -0.000302
H    -2.941306   -0.960593   -0.265547    0.013364   -0.060854   -0.681047
H    -2.218483   -2.050317    0.999024   -0.295604    0.697773    0.441808
H    -2.064575   -2.493067   -0.733474    0.271764   -0.600763    0.575660
C     0.477677   -1.629232    0.072114    0.002900   -0.005118   -0.039629
H     0.441142   -2.252558    0.997617   -0.278376   -0.735524   -0.377739
H     1.337568   -0.931633    0.111120   -0.014682    0.137250    0.668471
H     0.602470   -2.331871   -0.787743    0.304833    0.535159   -0.622154
O    -0.793717    0.352669   -0.270289    0.000018    0.000320    0.000245
10
* Frequency(6)   34.7189
C    -2.089798   -1.627450   -0.024452   -0.002991    0.006868    0.039185
C    -0.801091   -0.841447   -0.094370   -0.000041    0.000086   -0.000302
H    -2.940263   -0.965342   -0.318691    0.013364   -0.060854   -0.681047
H    -2.241551   -1.995867    1.033500   -0.295604    0.697773    0.441808
H    -2.043368   -2.539947   -0.688553    0.271764   -0.600763    0.575660
C     0.477904   -1.629632    0.069022    0.002900   -0.005118   -0.039629
H     0.419420   -2.309954    0.968141   -0.278376   -0.735524   -0.377739
H     1.336422   -0.920923    0.163284   -0.014682    0.137250    0.668471
H     0.626257   -2.290111   -0.836292    0.304833    0.535159   -0.622154
O    -0.793715    0.352694   -0.270269    0.000018    0.000320    0.000245
10
* Frequency(6)   34.7189
C    -2.089936   -1.627132   -0.022638   -0.002991    0.006868    0.039185
C    -0.801092   -0.841443   -0.094384   -0.000041    0.000086   -0.000302
H    -2.939645   -0.968158   -0.350211    0.013364   -0.060854   -0.681047
H    -2.255232   -1.963573    1.053948   -0.295604    0.697773    0.441808
H    -2.030791   -2.567751   -0.661910    0.271764   -0.600763    0.575660
C     0.478038   -1.629869    0.067188    0.002900   -0.005118   -0.039629
H     0.406536   -2.343995    0.950658   -0.278376   -0.735524   -0.377739
H     1.335743   -0.914571    0.194222   -0.014682    0.137250    0.668471
H     0.640365   -2.265343   -0.865087    0.304833    0.535159   -0.622154
O    -0.793715    0.352709   -0.270258    0.000018    0.000320    0.000245
10
* Frequency(6)   34.7189
C    -2.089965   -1.627066   -0.022265   -0.002991    0.006868    0.039185
C    -0.801093   -0.841442   -0.094387   -0.000041    0.000086   -0.000302
H    -2.939518   -0.968737   -0.356691    0.013364   -0.060854   -0.681047
H    -2.258044   -1.956934    1.058152   -0.295604    0.697773    0.441808
H    -2.028205   -2.573467   -0.656433    0.271764   -0.600763    0.575660
C     0.478065   -1.629917    0.066811    0.002900   -0.005118   -0.039629
H     0.403887   -2.350993    0.947064   -0.278376   -0.735524   -0.377739
H     1.335603   -0.913265    0.200582   -0.014682    0.137250    0.668471
H     0.643266   -2.260251   -0.871006    0.304833    0.535159   -0.622154
O    -0.793714    0.352712   -0.270256    0.000018    0.000320    0.000245
10
* Frequency(6)   34.7189
C    -2.089880   -1.627261   -0.023374   -0.002991    0.006868    0.039185
C    -0.801092   -0.841445   -0.094378   -0.000041    0.000086   -0.000302
H    -2.939896   -0.967016   -0.337429    0.013364   -0.060854   -0.681047
H    -2.249683   -1.976670    1.045656   -0.295604    0.697773    0.441808
H    -2.035892   -2.556475   -0.672715    0.271764   -0.600763    0.575660
C     0.477983   -1.629773    0.067931    0.002900   -0.005118   -0.039629
H     0.411761   -2.330190    0.957748   -0.278376   -0.735524   -0.377739
H     1.336018   -0.917147    0.181675   -0.014682    0.137250    0.668471
H     0.634644   -2.275387   -0.853409    0.304833    0.535159   -0.622154
O    -0.793715    0.352703   -0.270263    0.000018    0.000320    0.000245
10
* Frequency(6)   34.7189
C    -2.089692   -1.627693   -0.025843   -0.002991    0.006868    0.039185
C    -0.801089   -0.841450   -0.094359   -0.000041    0.000086   -0.000302
H    -2.940738   -0.963181   -0.294511    0.013364   -0.060854   -0.681047
H    -2.231055   -2.020641    1.017814   -0.295604    0.697773    0.441808
H    -2.053017   -2.518617   -0.708992    0.271764   -0.600763    0.575660
C     0.477801   -1.629450    0.070429    0.002900   -0.005118   -0.039629
H     0.429303   -2.283839    0.981552   -0.278376   -0.735524   -0.377739
H     1.336944   -0.925796    0.139550   -0.014682    0.137250    0.668471
H     0.615434   -2.309111   -0.814203    0.304833    0.535159   -0.622154
O    -0.793716    0.352683   -0.270278    0.000018    0.000320    0.000245
10
* Frequency(6)   34.7189
C    -2.089420   -1.628318   -0.029406   -0.002991    0.006868    0.039185
C    -0.801085   -0.841458   -0.094332   -0.000041    0.000086   -0.000302
H    -2.941953   -0.957648   -0.232589    0.013364   -0.060854   -0.681047
H    -2.204178   -2.084084    0.977644   -0.295604    0.697773    0.441808
H    -2.077727   -2.463994   -0.761332    0.271764   -0.600763    0.575660
C     0.477537   -1.628985    0.074032    0.002900   -0.005118   -0.039629
H     0.454614   -2.216964    1.015897   -0.278376   -0.735524   -0.377739
H     1.338278   -0.938275    0.078771   -0.014682    0.137250    0.668471
H     0.587718   -2.357769   -0.757636    0.304833    0.535159   -0.622154
O    -0.793718    0.352653   -0.270300    0.000018    0.000320    0.000245
10
* Frequency(6)   34.7189
C    -2.089094   -1.629066   -0.033676   -0.002991    0.006868    0.039185
C    -0.801081   -0.841467   -0.094299   -0.000041    0.000086   -0.000302
H    -2.943409   -0.951017   -0.158373    0.013364   -0.060854   -0.681047
H    -2.171965   -2.160123    0.929499   -0.295604    0.697773    0.441808
H    -2.107342   -2.398527   -0.824063    0.271764   -0.600763    0.575660
C     0.477221   -1.628427    0.078350    0.002900   -0.005118   -0.039629
H     0.484949   -2.136811    1.057060   -0.278376   -0.735524   -0.377739
H     1.339878   -0.953232    0.005925   -0.014682    0.137250    0.668471
H     0.554500   -2.416087   -0.689837    0.304833    0.535159   -0.622154
O    -0.793720    0.352619   -0.270327    0.000018    0.000320    0.000245
10
* Frequency(6)   34.7189
C    -2.088749   -1.629857   -0.038191   -0.002991    0.006868    0.039185
C    -0.801076   -0.841477   -0.094264   -0.000041    0.000086   -0.000302
H    -2.944949   -0.944005   -0.079905    0.013364   -0.060854   -0.681047
H    -2.137907   -2.240518    0.878595   -0.295604    0.697773    0.441808
H    -2.138653   -2.329309   -0.890389    0.271764   -0.600763    0.575660
C     0.476887   -1.627837    0.082916    0.002900   -0.005118   -0.039629
H     0.517023   -2.052067    1.100582   -0.278376   -0.735524   -0.377739
H     1.341570   -0.969045   -0.071093   -0.014682    0.137250    0.668471
H     0.519378   -2.477746   -0.618155    0.304833    0.535159   -0.622154
O    -0.793722    0.352582   -0.270355    0.000018    0.000320    0.000245
10
* Frequency(6)   34.7189
C    -2.088423   -1.630606   -0.042461   -0.002991    0.006868    0.039185
C    -0.801071   -0.841487   -0.094232   -0.000041    0.000086   -0.000302
H    -2.946405   -0.937374   -0.005689    0.013364   -0.060854   -0.681047
H    -2.105694   -2.316556    0.830450   -0.295604    0.697773    0.441808
H    -2.168268   -2.263842   -0.953121    0.271764   -0.600763    0.575660
C     0.476571   -1.627280    0.087235    0.002900   -0.005118   -0.039629
H     0.547358   -1.971914    1.141746   -0.278376   -0.735524   -0.377739
H     1.343170   -0.984002   -0.143939   -0.014682    0.137250    0.668471
H     0.486159   -2.536064   -0.550357    0.304833    0.535159   -0.622154
O    -0.793723    0.352547   -0.270382    0.000018    0.000320    0.000245
10
* Frequency(6)   34.7189
C    -2.088151   -1.631230   -0.046023   -0.002991    0.006868    0.039185
C    -0.801068   -0.841494   -0.094204   -0.000041    0.000086   -0.000302
H    -2.947620   -0.931841    0.056233    0.013364   -0.060854   -0.681047
H    -2.078817   -2.379999    0.790280   -0.295604    0.697773    0.441808
H    -2.192977   -2.209220   -1.005461    0.271764   -0.600763    0.575660
C     0.476307   -1.626814    0.090838    0.002900   -0.005118   -0.039629
H     0.572669   -1.905039    1.176090   -0.278376   -0.735524   -0.377739
H     1.344505   -0.996481   -0.204718   -0.014682    0.137250    0.668471
H     0.458443   -2.584722   -0.493789    0.304833    0.535159   -0.622154
O    -0.793725    0.352518   -0.270404    0.000018    0.000320    0.000245
10
* Frequency(6)   34.7189
C    -2.087963   -1.631663   -0.048493   -0.002991    0.006868    0.039185
C    -0.801065   -0.841500   -0.094185   -0.000041    0.000086   -0.000302
H    -2.948463   -0.928006    0.099151    0.013364   -0.060854   -0.681047
H    -2.060189   -2.423971    0.762438   -0.295604    0.697773    0.441808
H    -2.210103   -2.171361   -1.041737    0.271764   -0.600763    0.575660
C     0.476124   -1.626492    0.093335    0.002900   -0.005118   -0.039629
H     0.590211   -1.858689    1.199894   -0.278376   -0.735524   -0.377739
H     1.345430   -1.005130   -0.246843   -0.014682    0.137250    0.668471
H     0.439234   -2.618446   -0.454583    0.304833    0.535159   -0.622154
O    -0.793726    0.352497   -0.270420    0.000018    0.000320    0.000245
10
* Frequency(6)   34.7189
C    -2.087878   -1.631857   -0.049601   -0.002991    0.006868    0.039185
C    -0.801064   -0.841502   -0.094177   -0.000041    0.000086   -0.000302
H    -2.948841   -0.926285    0.118413    0.013364   -0.060854   -0.681047
H    -2.051828   -2.443707    0.749942   -0.295604    0.697773    0.441808
H    -2.217790   -2.154369   -1.058019    0.271764   -0.600763    0.575660
C     0.476042   -1.626347    0.094456    0.002900   -0.005118   -0.039629
H     0.598085   -1.837885    1.210578   -0.278376   -0.735524   -0.377739
H     1.345845   -1.009012   -0.265750   -0.014682    0.137250    0.668471
H     0.430612   -2.633583   -0.436986    0.304833    0.535159   -0.622154
O    -0.793727    0.352488   -0.270427    0.000018    0.000320    0.000245
10
* Frequency(6)   34.7189
C    -2.087906   -1.631792   -0.049228   -0.002991    0.006868    0.039185
C    -0.801064   -0.841502   -0.094179   -0.000041    0.000086   -0.000302
H    -2.948713   -0.926864    0.111933    0.013364   -0.060854   -0.681047
H    -2.054641   -2.437068    0.754146   -0.295604    0.697773    0.441808
H    -2.215204   -2.160085   -1.052542    0.271764   -0.600763    0.575660
C     0.476070   -1.626396    0.094079    0.002900   -0.005118   -0.039629
H     0.595436   -1.844883    1.206984   -0.278376   -0.735524   -0.377739
H     1.345705   -1.007706   -0.259390   -0.014682    0.137250    0.668471
H     0.433512   -2.628491   -0.442905    0.304833    0.535159   -0.622154
O    -0.793726    0.352491   -0.270424    0.000018    0.000320    0.000245
10
* Frequency(6)   34.7189
C    -2.088045   -1.631474   -0.047415   -0.002991    0.006868    0.039185
C    -0.801066   -0.841498   -0.094193   -0.000041    0.000086   -0.000302
H    -2.948095   -0.929680    0.080413    0.013364   -0.060854   -0.681047
H    -2.068322   -2.404773    0.774593   -0.295604    0.697773    0.441808
H    -2.202626   -2.187890   -1.025899    0.271764   -0.600763    0.575660
C     0.476204   -1.626632    0.092245    0.002900   -0.005118   -0.039629
H     0.582553   -1.878925    1.189502   -0.278376   -0.735524   -0.377739
H     1.345026   -1.001354   -0.228452   -0.014682    0.137250    0.668471
H     0.447620   -2.603723   -0.471700    0.304833    0.535159   -0.622154
O    -0.793726    0.352506   -0.270413    0.000018    0.000320    0.000245
10
* Frequency(6)   34.7189
C    -2.088278   -1.630938   -0.044357   -0.002991    0.006868    0.039185
C    -0.801069   -0.841491   -0.094217   -0.000041    0.000086   -0.000302
H    -2.947052   -0.934429    0.027269    0.013364   -0.060854   -0.681047
H    -2.091389   -2.350324    0.809069   -0.295604    0.697773    0.441808
H    -2.181420   -2.234769   -0.980978    0.271764   -0.600763    0.575660
C     0.476430   -1.627032    0.089152    0.002900   -0.005118   -0.039629
H     0.560830   -1.936320    1.160026   -0.278376   -0.735524   -0.377739
H     1.343880   -0.990644   -0.176288   -0.014682    0.137250    0.668471
H     0.471408   -2.561962   -0.520249    0.304833    0.535159   -0.622154
O    -0.793724    0.352531   -0.270394    0.000018    0.000320    0.000245
10
* Frequency(6)   34.7189
C    -2.088581   -1.630242   -0.040386   -0.002991    0.006868    0.039185
C    -0.801074   -0.841482   -0.094248   -0.000041    0.000086   -0.000302
H    -2.945698   -0.940595   -0.041742    0.013364   -0.060854   -0.681047
H    -2.121342   -2.279619    0.853838   -0.295604    0.697773    0.441808
H    -2.153882   -2.295645   -0.922647    0.271764   -0.600763    0.575660
C     0.476724   -1.627550    0.085137    0.002900   -0.005118   -0.039629
H     0.532622   -2.010851    1.121749   -0.278376   -0.735524   -0.377739
H     1.342393   -0.976736   -0.108552   -0.014682    0.137250    0.668471
H     0.502296   -2.507735   -0.583292    0.304833    0.535159   -0.622154
O    -0.793723    0.352564   -0.270369    0.000018    0.000320    0.000245
10
* Frequency(6)   34.7189
C    -2.088921   -1.629462   -0.035933   -0.002991    0.006868    0.039185
C    -0.801078   -0.841472   -0.094282   -0.000041    0.000086   -0.000302
H    -2.944179   -0.947511   -0.119139    0.013364   -0.060854   -0.681047
H    -2.154936   -2.200320    0.904047   -0.295604    0.697773    0.441808
H    -2.122997   -2.363918   -0.857226    0.271764   -0.600763    0.575660
C     0.477054   -1.628132    0.080633    0.002900   -0.005118   -0.039629
H     0.500986   -2.094439    1.078821   -0.278376   -0.735524   -0.377739
H     1.340724   -0.961139   -0.032584   -0.014682    0.137250    0.668471
H     0.536939   -2.446917   -0.653996    0.304833    0.535159   -0.622154
O    -0.793721    0.352600   -0.270341    0.000018    0.000320    0.000245
