10
* (null), Energy   -1000.0000000
C    -2.088921   -1.629462   -0.035933   -0.011684    0.001917    0.063944
C    -0.801078   -0.841472   -0.094282    0.013113    0.009728    0.066843
H    -2.944179   -0.947511   -0.119139    0.026879   -0.076818   -0.987880
H    -2.154936   -2.200320    0.904047    0.679268   -0.202302   -0.028764
H    -2.122997   -2.363918   -0.857226   -0.631488    0.194517   -0.102035
C     0.477054   -1.628132    0.080633   -0.011032    0.018312    0.064141
H     0.500986   -2.094439    1.078821   -0.656127   -0.227044   -0.051451
H     1.340724   -0.961139   -0.032584    0.026084   -0.212714   -0.999907
H     0.536939   -2.446917   -0.653996    0.697448    0.175899   -0.076878
O    -0.793721    0.352600   -0.270341   -0.001741   -0.000535   -0.004775
10
* Frequency(22) 1456.9237
C    -2.090249   -1.629244   -0.028666   -0.011684    0.001917    0.063944
C    -0.799588   -0.840367   -0.086685    0.013113    0.009728    0.066843
H    -2.941124   -0.956241   -0.231406    0.026879   -0.076818   -0.987880
H    -2.077741   -2.223311    0.900778    0.679268   -0.202302   -0.028764
H    -2.194763   -2.341812   -0.868822   -0.631488    0.194517   -0.102035
C     0.475800   -1.626051    0.087923   -0.011032    0.018312    0.064141
H     0.426421   -2.120241    1.072974   -0.656127   -0.227044   -0.051451
H     1.343688   -0.985312   -0.146218    0.026084   -0.212714   -0.999907
H     0.616200   -2.426927   -0.662733    0.697448    0.175899   -0.076878
O    -0.793918    0.352539   -0.270884   -0.001741   -0.000535   -0.004775
10
* Frequency(22) 1456.9237
C    -2.091433   -1.629050   -0.022187   -0.011684    0.001917    0.063944
C    -0.798259   -0.839381   -0.079912    0.013113    0.009728    0.066843
H    -2.938401   -0.964025   -0.331508    0.026879   -0.076818   -0.987880
H    -2.008911   -2.243810    0.897863    0.679268   -0.202302   -0.028764
H    -2.258751   -2.322102   -0.879161   -0.631488    0.194517   -0.102035
C     0.474682   -1.624196    0.094422   -0.011032    0.018312    0.064141
H     0.359936   -2.143248    1.067761   -0.656127   -0.227044   -0.051451
H     1.346332   -1.006867   -0.247539    0.026084   -0.212714   -0.999907
H     0.686872   -2.409103   -0.670523    0.697448    0.175899   -0.076878
O    -0.794095    0.352485   -0.271368   -0.001741   -0.000535   -0.004775
10
* Frequency(22) 1456.9237
C    -2.092345   -1.628900   -0.017197   -0.011684    0.001917    0.063944
C    -0.797236   -0.838622   -0.074696    0.013113    0.009728    0.066843
H    -2.936303   -0.970019   -0.408596    0.026879   -0.076818   -0.987880
H    -1.955905   -2.259596    0.895619    0.679268   -0.202302   -0.028764
H    -2.308029   -2.306923   -0.887123   -0.631488    0.194517   -0.102035
C     0.473821   -1.622767    0.099427   -0.011032    0.018312    0.064141
H     0.308735   -2.160965    1.063746   -0.656127   -0.227044   -0.051451
H     1.348367   -1.023466   -0.325565    0.026084   -0.212714   -0.999907
H     0.741297   -2.395377   -0.676522    0.697448    0.175899   -0.076878
O    -0.794231    0.352443   -0.271740   -0.001741   -0.000535   -0.004775
10
* Frequency(22) 1456.9237
C    -2.092886   -1.628811   -0.014238   -0.011684    0.001917    0.063944
C    -0.796629   -0.838172   -0.071603    0.013113    0.009728    0.066843
H    -2.935059   -0.973575   -0.454317    0.026879   -0.076818   -0.987880
H    -1.924467   -2.268959    0.894288    0.679268   -0.202302   -0.028764
H    -2.337255   -2.297921   -0.891846   -0.631488    0.194517   -0.102035
C     0.473311   -1.621919    0.102396   -0.011032    0.018312    0.064141
H     0.278369   -2.171473    1.061365   -0.656127   -0.227044   -0.051451
H     1.349574   -1.033310   -0.371843    0.026084   -0.212714   -0.999907
H     0.773576   -2.387236   -0.680080    0.697448    0.175899   -0.076878
O    -0.794311    0.352418   -0.271961   -0.001741   -0.000535   -0.004775
10
* Frequency(22) 1456.9237
C    -2.092997   -1.628793   -0.013629   -0.011684    0.001917    0.063944
C    -0.796504   -0.838079   -0.070967    0.013113    0.009728    0.066843
H    -2.934803   -0.974306   -0.463716    0.026879   -0.076818   -0.987880
H    -1.918004   -2.270884    0.894014    0.679268   -0.202302   -0.028764
H    -2.343263   -2.296070   -0.892817   -0.631488    0.194517   -0.102035
C     0.473206   -1.621745    0.103006   -0.011032    0.018312    0.064141
H     0.272126   -2.173633    1.060875   -0.656127   -0.227044   -0.051451
H     1.349822   -1.035334   -0.381356    0.026084   -0.212714   -0.999907
H     0.780212   -2.385562   -0.680811    0.697448    0.175899   -0.076878
O    -0.794328    0.352413   -0.272007   -0.001741   -0.000535   -0.004775
10
* Frequency(22) 1456.9237
C    -2.092666   -1.628847   -0.015438   -0.011684    0.001917    0.063944
C    -0.796875   -0.838354   -0.072857    0.013113    0.009728    0.066843
H    -2.935564   -0.972133   -0.435775    0.026879   -0.076818   -0.987880
H    -1.937217   -2.265162    0.894828    0.679268   -0.202302   -0.028764
H    -2.325402   -2.301572   -0.889931   -0.631488    0.194517   -0.102035
C     0.473518   -1.622263    0.101192   -0.011032    0.018312    0.064141
H     0.290684   -2.167211    1.062330   -0.656127   -0.227044   -0.051451
H     1.349085   -1.029318   -0.353075    0.026084   -0.212714   -0.999907
H     0.760485   -2.390537   -0.678637    0.697448    0.175899   -0.076878
O    -0.794279    0.352429   -0.271872   -0.001741   -0.000535   -0.004775
10
* Frequency(22) 1456.9237
C    -2.091930   -1.628968   -0.019467   -0.011684    0.001917    0.063944
C    -0.797702   -0.838967   -0.077069    0.013113    0.009728    0.066843
H    -2.937258   -0.967292   -0.373521    0.026879   -0.076818   -0.987880
H    -1.980022   -2.252414    0.896640    0.679268   -0.202302   -0.028764
H    -2.285608   -2.313829   -0.883501   -0.631488    0.194517   -0.102035
C     0.474213   -1.623417    0.097150   -0.011032    0.018312    0.064141
H     0.332031   -2.152904    1.065573   -0.656127   -0.227044   -0.051451
H     1.347441   -1.015913   -0.290064    0.026084   -0.212714   -0.999907
H     0.716534   -2.401622   -0.673792    0.697448    0.175899   -0.076878
O    -0.794169    0.352462   -0.271571   -0.001741   -0.000535   -0.004775
10
* Frequency(22) 1456.9237
C    -2.090868   -1.629142   -0.025281   -0.011684    0.001917    0.063944
C    -0.798894   -0.839852   -0.083147    0.013113    0.009728    0.066843
H    -2.939701   -0.960308   -0.283702    0.026879   -0.076818   -0.987880
H    -2.041783   -2.234020    0.899255    0.679268   -0.202302   -0.028764
H    -2.228192   -2.331515   -0.874223   -0.631488    0.194517   -0.102035
C     0.475216   -1.625082    0.091318   -0.011032    0.018312    0.064141
H     0.391687   -2.132260    1.070251   -0.656127   -0.227044   -0.051451
H     1.345069   -0.996573   -0.199150    0.026084   -0.212714   -0.999907
H     0.653121   -2.417615   -0.666803    0.697448    0.175899   -0.076878
O    -0.794011    0.352511   -0.271137   -0.001741   -0.000535   -0.004775
10
* Frequency(22) 1456.9237
C    -2.089594   -1.629351   -0.032250   -0.011684    0.001917    0.063944
C    -0.800323   -0.840912   -0.090431    0.013113    0.009728    0.066843
H    -2.942631   -0.951936   -0.176049    0.026879   -0.076818   -0.987880
H    -2.115805   -2.211974    0.902390    0.679268   -0.202302   -0.028764
H    -2.159376   -2.352712   -0.863104   -0.631488    0.194517   -0.102035
C     0.476418   -1.627077    0.084328   -0.011032    0.018312    0.064141
H     0.463188   -2.107519    1.075857   -0.656127   -0.227044   -0.051451
H     1.342227   -0.973393   -0.090187    0.026084   -0.212714   -0.999907
H     0.577118   -2.436783   -0.658425    0.697448    0.175899   -0.076878
O    -0.793821    0.352569   -0.270616   -0.001741   -0.000535   -0.004775
10
* Frequency(22) 1456.9237
C    -2.088248   -1.629572   -0.039617   -0.011684    0.001917    0.063944
C    -0.801834   -0.842033   -0.098133    0.013113    0.009728    0.066843
H    -2.945728   -0.943086   -0.062229    0.026879   -0.076818   -0.987880
H    -2.194067   -2.188666    0.905704    0.679268   -0.202302   -0.028764
H    -2.086619   -2.375124   -0.851348   -0.631488    0.194517   -0.102035
C     0.477689   -1.629187    0.076938   -0.011032    0.018312    0.064141
H     0.538784   -2.081360    1.081785   -0.656127   -0.227044   -0.051451
H     1.339221   -0.948885    0.025019    0.026084   -0.212714   -0.999907
H     0.496760   -2.457050   -0.649567    0.697448    0.175899   -0.076878
O    -0.793620    0.352631   -0.270066   -0.001741   -0.000535   -0.004775
10
* Frequency(22) 1456.9237
C    -2.086975   -1.629781   -0.046585   -0.011684    0.001917    0.063944
C    -0.803263   -0.843093   -0.105417    0.013113    0.009728    0.066843
H    -2.948657   -0.934715    0.045424    0.026879   -0.076818   -0.987880
H    -2.268090   -2.166621    0.908838    0.679268   -0.202302   -0.028764
H    -2.017803   -2.396321   -0.840229   -0.631488    0.194517   -0.102035
C     0.478892   -1.631182    0.069949   -0.011032    0.018312    0.064141
H     0.610285   -2.056618    1.087392   -0.656127   -0.227044   -0.051451
H     1.336379   -0.925704    0.133982    0.026084   -0.212714   -0.999907
H     0.420757   -2.476218   -0.641190    0.697448    0.175899   -0.076878
O    -0.793430    0.352689   -0.269546   -0.001741   -0.000535   -0.004775
10
* Frequency(22) 1456.9237
C    -2.085913   -1.629955   -0.052399   -0.011684    0.001917    0.063944
C    -0.804455   -0.843977   -0.111494    0.013113    0.009728    0.066843
H    -2.951101   -0.927730    0.135243    0.026879   -0.076818   -0.987880
H    -2.329850   -2.148227    0.911454    0.679268   -0.202302   -0.028764
H    -1.960387   -2.414007   -0.830952   -0.631488    0.194517   -0.102035
C     0.479895   -1.632847    0.064117   -0.011032    0.018312    0.064141
H     0.669941   -2.035975    1.092070   -0.656127   -0.227044   -0.051451
H     1.334007   -0.906364    0.224895    0.026084   -0.212714   -0.999907
H     0.357343   -2.492211   -0.634200    0.697448    0.175899   -0.076878
O    -0.793272    0.352738   -0.269112   -0.001741   -0.000535   -0.004775
10
* Frequency(22) 1456.9237
C    -2.085176   -1.630076   -0.056429   -0.011684    0.001917    0.063944
C    -0.805281   -0.844590   -0.115706    0.013113    0.009728    0.066843
H    -2.952794   -0.922889    0.197497    0.026879   -0.076818   -0.987880
H    -2.372655   -2.135478    0.913266    0.679268   -0.202302   -0.028764
H    -1.920592   -2.426265   -0.824522   -0.631488    0.194517   -0.102035
C     0.480590   -1.634001    0.060075   -0.011032    0.018312    0.064141
H     0.711288   -2.021667    1.095312   -0.656127   -0.227044   -0.051451
H     1.332364   -0.892959    0.287907    0.026084   -0.212714   -0.999907
H     0.313392   -2.503296   -0.629355    0.697448    0.175899   -0.076878
O    -0.793162    0.352772   -0.268811   -0.001741   -0.000535   -0.004775
10
* Frequency(22) 1456.9237
C    -2.084846   -1.630131   -0.058237   -0.011684    0.001917    0.063944
C    -0.805652   -0.844865   -0.117597    0.013113    0.009728    0.066843
H    -2.953555   -0.920717    0.225438    0.026879   -0.076818   -0.987880
H    -2.391868   -2.129757    0.914080    0.679268   -0.202302   -0.028764
H    -1.902732   -2.431767   -0.821636   -0.631488    0.194517   -0.102035
C     0.480902   -1.634519    0.058261   -0.011032    0.018312    0.064141
H     0.729846   -2.015245    1.096767   -0.656127   -0.227044   -0.051451
H     1.331626   -0.886943    0.316188    0.026084   -0.212714   -0.999907
H     0.293666   -2.508271   -0.627181    0.697448    0.175899   -0.076878
O    -0.793113    0.352787   -0.268676   -0.001741   -0.000535   -0.004775
10
* Frequency(22) 1456.9237
C    -2.084957   -1.630112   -0.057629   -0.011684    0.001917    0.063944
C    -0.805528   -0.844773   -0.116961    0.013113    0.009728    0.066843
H    -2.953299   -0.921447    0.216039    0.026879   -0.076818   -0.987880
H    -2.385405   -2.131681    0.913806    0.679268   -0.202302   -0.028764
H    -1.908740   -2.429916   -0.822607   -0.631488    0.194517   -0.102035
C     0.480797   -1.634345    0.058871   -0.011032    0.018312    0.064141
H     0.723603   -2.017405    1.096278   -0.656127   -0.227044   -0.051451
H     1.331874   -0.888967    0.306675    0.026084   -0.212714   -0.999907
H     0.300301   -2.506598   -0.627912    0.697448    0.175899   -0.076878
O    -0.793130    0.352782   -0.268721   -0.001741   -0.000535   -0.004775
10
* Frequency(22) 1456.9237
C    -2.085498   -1.630024   -0.054669   -0.011684    0.001917    0.063944
C    -0.804921   -0.844323   -0.113867    0.013113    0.009728    0.066843
H    -2.952055   -0.925003    0.170318    0.026879   -0.076818   -0.987880
H    -2.353967   -2.141044    0.912475    0.679268   -0.202302   -0.028764
H    -1.937966   -2.420913   -0.827329   -0.631488    0.194517   -0.102035
C     0.480286   -1.633498    0.061839   -0.011032    0.018312    0.064141
H     0.693237   -2.027913    1.093897   -0.656127   -0.227044   -0.051451
H     1.333081   -0.898812    0.260397    0.026084   -0.212714   -0.999907
H     0.332581   -2.498457   -0.631470    0.697448    0.175899   -0.076878
O    -0.793210    0.352757   -0.268942   -0.001741   -0.000535   -0.004775
10
* Frequency(22) 1456.9237
C    -2.086409   -1.629874   -0.049680   -0.011684    0.001917    0.063944
C    -0.803897   -0.843563   -0.108651    0.013113    0.009728    0.066843
H    -2.949957   -0.930997    0.093230    0.026879   -0.076818   -0.987880
H    -2.300961   -2.156831    0.910230    0.679268   -0.202302   -0.028764
H    -1.987244   -2.405734   -0.835291   -0.631488    0.194517   -0.102035
C     0.479425   -1.632069    0.066845   -0.011032    0.018312    0.064141
H     0.642037   -2.045630    1.089882   -0.656127   -0.227044   -0.051451
H     1.335117   -0.915411    0.182370    0.026084   -0.212714   -0.999907
H     0.387005   -2.484730   -0.637469    0.697448    0.175899   -0.076878
O    -0.793346    0.352715   -0.269315   -0.001741   -0.000535   -0.004775
10
* Frequency(22) 1456.9237
C    -2.087593   -1.629680   -0.043200   -0.011684    0.001917    0.063944
C    -0.802569   -0.842578   -0.101878    0.013113    0.009728    0.066843
H    -2.947234   -0.938781   -0.006872    0.026879   -0.076818   -0.987880
H    -2.232131   -2.177330    0.907316    0.679268   -0.202302   -0.028764
H    -2.051232   -2.386024   -0.845630   -0.631488    0.194517   -0.102035
C     0.478308   -1.630213    0.073344   -0.011032    0.018312    0.064141
H     0.575552   -2.068637    1.084668   -0.656127   -0.227044   -0.051451
H     1.337760   -0.936965    0.081050    0.026084   -0.212714   -0.999907
H     0.457677   -2.466907   -0.645259    0.697448    0.175899   -0.076878
O    -0.793523    0.352661   -0.269799   -0.001741   -0.000535   -0.004775
10
* Frequency(22) 1456.9237
C    -2.088921   -1.629462   -0.035933   -0.011684    0.001917    0.063944
C    -0.801078   -0.841472   -0.094282    0.013113    0.009728    0.066843
H    -2.944179   -0.947511   -0.119139    0.026879   -0.076818   -0.987880
H    -2.154936   -2.200320    0.904047    0.679268   -0.202302   -0.028764
H    -2.122997   -2.363918   -0.857226   -0.631488    0.194517   -0.102035
C     0.477054   -1.628132    0.080633   -0.011032    0.018312    0.064141
H     0.500986   -2.094439    1.078821   -0.656127   -0.227044   -0.051451
H     1.340724   -0.961139   -0.032584    0.026084   -0.212714   -0.999907
H     0.536939   -2.446917   -0.653996    0.697448    0.175899   -0.076878
O    -0.793721    0.352600   -0.270341   -0.001741   -0.000535   -0.004775
