10
* (null), Energy   -1000.0000000
C    -2.088921   -1.629462   -0.035933   -0.046792    0.051102   -0.007643
C    -0.801078   -0.841472   -0.094282   -0.052191    0.000383    0.003975
H    -2.944179   -0.947511   -0.119139    0.359160    0.536415   -0.022802
H    -2.154936   -2.200320    0.904047    0.200362   -0.759796   -0.468431
H    -2.122997   -2.363918   -0.857226    0.194136   -0.667680    0.609095
C     0.477054   -1.628132    0.080633   -0.043132   -0.048225    0.009871
H     0.500986   -2.094439    1.078821    0.163938    0.761751    0.370443
H     1.340724   -0.961139   -0.032584    0.331305   -0.497974    0.091480
H     0.536939   -2.446917   -0.653996    0.214200    0.564478   -0.635851
O    -0.793721    0.352600   -0.270341    0.014509    0.001510   -0.001124
10
* Frequency(19) 1423.2300
C    -2.094239   -1.623654   -0.036802   -0.046792    0.051102   -0.007643
C    -0.807010   -0.841429   -0.093830   -0.052191    0.000383    0.003975
H    -2.903362   -0.886550   -0.121730    0.359160    0.536415   -0.022802
H    -2.132166   -2.286667    0.850812    0.200362   -0.759796   -0.468431
H    -2.100935   -2.439797   -0.788006    0.194136   -0.667680    0.609095
C     0.472152   -1.633613    0.081755   -0.043132   -0.048225    0.009871
H     0.519617   -2.007870    1.120920    0.163938    0.761751    0.370443
H     1.378375   -1.017731   -0.022188    0.331305   -0.497974    0.091480
H     0.561282   -2.382767   -0.726257    0.214200    0.564478   -0.635851
O    -0.792072    0.352772   -0.270469    0.014509    0.001510   -0.001124
10
* Frequency(19) 1423.2300
C    -2.098980   -1.618476   -0.037576   -0.046792    0.051102   -0.007643
C    -0.812298   -0.841390   -0.093427   -0.052191    0.000383    0.003975
H    -2.866969   -0.832195   -0.124041    0.359160    0.536415   -0.022802
H    -2.111863   -2.363657    0.803346    0.200362   -0.759796   -0.468431
H    -2.081263   -2.507452   -0.726286    0.194136   -0.667680    0.609095
C     0.467782   -1.638499    0.082755   -0.043132   -0.048225    0.009871
H     0.536229   -1.930682    1.158457    0.163938    0.761751    0.370443
H     1.411946   -1.068190   -0.012918    0.331305   -0.497974    0.091480
H     0.582986   -2.325568   -0.790688    0.214200    0.564478   -0.635851
O    -0.790601    0.352925   -0.270583    0.014509    0.001510   -0.001124
10
* Frequency(19) 1423.2300
C    -2.102632   -1.614488   -0.038173   -0.046792    0.051102   -0.007643
C    -0.816371   -0.841360   -0.093117   -0.052191    0.000383    0.003975
H    -2.838942   -0.790337   -0.125820    0.359160    0.536415   -0.022802
H    -2.096228   -2.422947    0.766793    0.200362   -0.759796   -0.468431
H    -2.066114   -2.559554   -0.678756    0.194136   -0.667680    0.609095
C     0.464416   -1.642262    0.083526   -0.043132   -0.048225    0.009871
H     0.549021   -1.871240    1.187364    0.163938    0.761751    0.370443
H     1.437799   -1.107049   -0.005780    0.331305   -0.497974    0.091480
H     0.599701   -2.281520   -0.840306    0.214200    0.564478   -0.635851
O    -0.789469    0.353042   -0.270671    0.014509    0.001510   -0.001124
10
* Frequency(19) 1423.2300
C    -2.104797   -1.612123   -0.038527   -0.046792    0.051102   -0.007643
C    -0.818786   -0.841342   -0.092933   -0.052191    0.000383    0.003975
H    -2.822320   -0.765511   -0.126875    0.359160    0.536415   -0.022802
H    -2.086955   -2.458111    0.745113    0.200362   -0.759796   -0.468431
H    -2.057129   -2.590456   -0.650566    0.194136   -0.667680    0.609095
C     0.462420   -1.644494    0.083983   -0.043132   -0.048225    0.009871
H     0.556609   -1.835985    1.204509    0.163938    0.761751    0.370443
H     1.453133   -1.130096   -0.001546    0.331305   -0.497974    0.091480
H     0.609615   -2.255395   -0.869734    0.214200    0.564478   -0.635851
O    -0.788798    0.353112   -0.270723    0.014509    0.001510   -0.001124
10
* Frequency(19) 1423.2300
C    -2.105243   -1.611637   -0.038599   -0.046792    0.051102   -0.007643
C    -0.819283   -0.841339   -0.092895   -0.052191    0.000383    0.003975
H    -2.818903   -0.760407   -0.127092    0.359160    0.536415   -0.022802
H    -2.085049   -2.465340    0.740656    0.200362   -0.759796   -0.468431
H    -2.055282   -2.596808   -0.644771    0.194136   -0.667680    0.609095
C     0.462009   -1.644953    0.084076   -0.043132   -0.048225    0.009871
H     0.558169   -1.828737    1.208033    0.163938    0.761751    0.370443
H     1.456285   -1.134834   -0.000675    0.331305   -0.497974    0.091480
H     0.611653   -2.250024   -0.875784    0.214200    0.564478   -0.635851
O    -0.788660    0.353127   -0.270733    0.014509    0.001510   -0.001124
10
* Frequency(19) 1423.2300
C    -2.103919   -1.613083   -0.038383   -0.046792    0.051102   -0.007643
C    -0.817807   -0.841350   -0.093008   -0.052191    0.000383    0.003975
H    -2.829061   -0.775579   -0.126447    0.359160    0.536415   -0.022802
H    -2.090716   -2.443850    0.753905    0.200362   -0.759796   -0.468431
H    -2.060773   -2.577924   -0.661999    0.194136   -0.667680    0.609095
C     0.463229   -1.643589    0.083797   -0.043132   -0.048225    0.009871
H     0.553532   -1.850282    1.197556    0.163938    0.761751    0.370443
H     1.446914   -1.120750   -0.003263    0.331305   -0.497974    0.091480
H     0.605594   -2.265990   -0.857799    0.214200    0.564478   -0.635851
O    -0.789070    0.353084   -0.270701    0.014509    0.001510   -0.001124
10
* Frequency(19) 1423.2300
C    -2.100970   -1.616303   -0.037901   -0.046792    0.051102   -0.007643
C    -0.814518   -0.841374   -0.093258   -0.052191    0.000383    0.003975
H    -2.851694   -0.809382   -0.125010    0.359160    0.536415   -0.022802
H    -2.103342   -2.395970    0.783424    0.200362   -0.759796   -0.468431
H    -2.073007   -2.535848   -0.700382    0.194136   -0.667680    0.609095
C     0.465947   -1.640550    0.083175   -0.043132   -0.048225    0.009871
H     0.543201   -1.898286    1.174212    0.163938    0.761751    0.370443
H     1.426036   -1.089369   -0.009028    0.331305   -0.497974    0.091480
H     0.592096   -2.301562   -0.817730    0.214200    0.564478   -0.635851
O    -0.789984    0.352989   -0.270631    0.014509    0.001510   -0.001124
10
* Frequency(19) 1423.2300
C    -2.096716   -1.620949   -0.037206   -0.046792    0.051102   -0.007643
C    -0.809772   -0.841408   -0.093620   -0.052191    0.000383    0.003975
H    -2.884350   -0.858154   -0.122937    0.359160    0.536415   -0.022802
H    -2.121559   -2.326888    0.826015    0.200362   -0.759796   -0.468431
H    -2.090658   -2.475141   -0.755762    0.194136   -0.667680    0.609095
C     0.469869   -1.636165    0.082278   -0.043132   -0.048225    0.009871
H     0.528295   -1.967545    1.140530    0.163938    0.761751    0.370443
H     1.395913   -1.044092   -0.017345    0.331305   -0.497974    0.091480
H     0.572621   -2.352885   -0.759917    0.214200    0.564478   -0.635851
O    -0.791304    0.352852   -0.270528    0.014509    0.001510   -0.001124
10
* Frequency(19) 1423.2300
C    -2.091617   -1.626518   -0.036374   -0.046792    0.051102   -0.007643
C    -0.804085   -0.841450   -0.094053   -0.052191    0.000383    0.003975
H    -2.923489   -0.916609   -0.120453    0.359160    0.536415   -0.022802
H    -2.143394   -2.244091    0.877061    0.200362   -0.759796   -0.468431
H    -2.111814   -2.402382   -0.822137    0.194136   -0.667680    0.609095
C     0.474569   -1.630910    0.081202   -0.043132   -0.048225    0.009871
H     0.510430   -2.050556    1.100162    0.163938    0.761751    0.370443
H     1.359810   -0.989826   -0.027314    0.331305   -0.497974    0.091480
H     0.549278   -2.414398   -0.690626    0.214200    0.564478   -0.635851
O    -0.792885    0.352687   -0.270406    0.014509    0.001510   -0.001124
10
* Frequency(19) 1423.2300
C    -2.086226   -1.632406   -0.035493   -0.046792    0.051102   -0.007643
C    -0.798072   -0.841494   -0.094511   -0.052191    0.000383    0.003975
H    -2.964870   -0.978413   -0.117825    0.359160    0.536415   -0.022802
H    -2.166479   -2.156550    0.931032    0.200362   -0.759796   -0.468431
H    -2.134181   -2.325454   -0.892315    0.194136   -0.667680    0.609095
C     0.479539   -1.625354    0.080065   -0.043132   -0.048225    0.009871
H     0.491542   -2.138322    1.057481    0.163938    0.761751    0.370443
H     1.321638   -0.932451   -0.037854    0.331305   -0.497974    0.091480
H     0.524599   -2.479435   -0.617366    0.214200    0.564478   -0.635851
O    -0.794556    0.352513   -0.270276    0.014509    0.001510   -0.001124
10
* Frequency(19) 1423.2300
C    -2.081127   -1.637974   -0.034660   -0.046792    0.051102   -0.007643
C    -0.792384   -0.841536   -0.094944   -0.052191    0.000383    0.003975
H    -3.004008   -1.036868   -0.115341    0.359160    0.536415   -0.022802
H    -2.188313   -2.073752    0.982079    0.200362   -0.759796   -0.468431
H    -2.155337   -2.252695   -0.958690    0.194136   -0.667680    0.609095
C     0.484239   -1.620099    0.078989   -0.043132   -0.048225    0.009871
H     0.473677   -2.221333    1.017112    0.163938    0.761751    0.370443
H     1.285535   -0.878185   -0.047823    0.331305   -0.497974    0.091480
H     0.501257   -2.540948   -0.548075    0.214200    0.564478   -0.635851
O    -0.796138    0.352349   -0.270154    0.014509    0.001510   -0.001124
10
* Frequency(19) 1423.2300
C    -2.076872   -1.642621   -0.033965   -0.046792    0.051102   -0.007643
C    -0.787639   -0.841571   -0.095305   -0.052191    0.000383    0.003975
H    -3.036664   -1.085640   -0.113267    0.359160    0.536415   -0.022802
H    -2.206530   -2.004670    1.024670    0.200362   -0.759796   -0.468431
H    -2.172988   -2.191988   -1.014070    0.194136   -0.667680    0.609095
C     0.488160   -1.615714    0.078091   -0.043132   -0.048225    0.009871
H     0.458771   -2.290593    0.983431    0.163938    0.761751    0.370443
H     1.255412   -0.832909   -0.056141    0.331305   -0.497974    0.091480
H     0.481782   -2.592272   -0.490262    0.214200    0.564478   -0.635851
O    -0.797457    0.352211   -0.270052    0.014509    0.001510   -0.001124
10
* Frequency(19) 1423.2300
C    -2.073924   -1.645841   -0.033483   -0.046792    0.051102   -0.007643
C    -0.784350   -0.841595   -0.095556   -0.052191    0.000383    0.003975
H    -3.059297   -1.119443   -0.111831    0.359160    0.536415   -0.022802
H    -2.219156   -1.956790    1.054189    0.200362   -0.759796   -0.468431
H    -2.185222   -2.149913   -1.052454    0.194136   -0.667680    0.609095
C     0.490879   -1.612675    0.077469   -0.043132   -0.048225    0.009871
H     0.448440   -2.338596    0.960087    0.163938    0.761751    0.370443
H     1.234534   -0.801528   -0.061905    0.331305   -0.497974    0.091480
H     0.468283   -2.627843   -0.450193    0.214200    0.564478   -0.635851
O    -0.798371    0.352116   -0.269981    0.014509    0.001510   -0.001124
10
* Frequency(19) 1423.2300
C    -2.072600   -1.647286   -0.033267   -0.046792    0.051102   -0.007643
C    -0.782874   -0.841606   -0.095668   -0.052191    0.000383    0.003975
H    -3.069456   -1.134615   -0.111186    0.359160    0.536415   -0.022802
H    -2.224823   -1.935300    1.067438    0.200362   -0.759796   -0.468431
H    -2.190713   -2.131028   -1.069681    0.194136   -0.667680    0.609095
C     0.492099   -1.611311    0.077190   -0.043132   -0.048225    0.009871
H     0.443804   -2.360141    0.949609    0.163938    0.761751    0.370443
H     1.225163   -0.787443   -0.064493    0.331305   -0.497974    0.091480
H     0.462225   -2.643809   -0.432208    0.214200    0.564478   -0.635851
O    -0.798781    0.352073   -0.269949    0.014509    0.001510   -0.001124
10
* Frequency(19) 1423.2300
C    -2.073045   -1.646800   -0.033340   -0.046792    0.051102   -0.007643
C    -0.783371   -0.841602   -0.095630   -0.052191    0.000383    0.003975
H    -3.066038   -1.129512   -0.111403    0.359160    0.536415   -0.022802
H    -2.222917   -1.942529    1.062981    0.200362   -0.759796   -0.468431
H    -2.188866   -2.137381   -1.063886    0.194136   -0.667680    0.609095
C     0.491688   -1.611770    0.077284   -0.043132   -0.048225    0.009871
H     0.445363   -2.352894    0.953134    0.163938    0.761751    0.370443
H     1.228316   -0.792181   -0.063622    0.331305   -0.497974    0.091480
H     0.464263   -2.638438   -0.438258    0.214200    0.564478   -0.635851
O    -0.798643    0.352088   -0.269960    0.014509    0.001510   -0.001124
10
* Frequency(19) 1423.2300
C    -2.075211   -1.644435   -0.033694   -0.046792    0.051102   -0.007643
C    -0.785786   -0.841584   -0.095446   -0.052191    0.000383    0.003975
H    -3.049416   -1.104685   -0.112458    0.359160    0.536415   -0.022802
H    -2.213644   -1.977694    1.041301    0.200362   -0.759796   -0.468431
H    -2.179881   -2.168282   -1.035696    0.194136   -0.667680    0.609095
C     0.489692   -1.614002    0.077741   -0.043132   -0.048225    0.009871
H     0.452951   -2.317638    0.970278    0.163938    0.761751    0.370443
H     1.243649   -0.815228   -0.059389    0.331305   -0.497974    0.091480
H     0.474176   -2.612313   -0.467687    0.214200    0.564478   -0.635851
O    -0.797972    0.352158   -0.270012    0.014509    0.001510   -0.001124
10
* Frequency(19) 1423.2300
C    -2.078862   -1.640447   -0.034290   -0.046792    0.051102   -0.007643
C    -0.789859   -0.841555   -0.095136   -0.052191    0.000383    0.003975
H    -3.021389   -1.062827   -0.114237    0.359160    0.536415   -0.022802
H    -2.198009   -2.036984    1.004748    0.200362   -0.759796   -0.468431
H    -2.164732   -2.220384   -0.988166    0.194136   -0.667680    0.609095
C     0.486326   -1.617765    0.078511   -0.043132   -0.048225    0.009871
H     0.465744   -2.258196    0.999186    0.163938    0.761751    0.370443
H     1.269502   -0.854087   -0.052250    0.331305   -0.497974    0.091480
H     0.490891   -2.568265   -0.517304    0.214200    0.564478   -0.635851
O    -0.796840    0.352275   -0.270099    0.014509    0.001510   -0.001124
10
* Frequency(19) 1423.2300
C    -2.083604   -1.635269   -0.035065   -0.046792    0.051102   -0.007643
C    -0.795147   -0.841516   -0.094734   -0.052191    0.000383    0.003975
H    -2.984996   -1.008472   -0.116548    0.359160    0.536415   -0.022802
H    -2.177706   -2.113973    0.957282    0.200362   -0.759796   -0.468431
H    -2.145060   -2.288040   -0.926447    0.194136   -0.667680    0.609095
C     0.481956   -1.622652    0.079511   -0.043132   -0.048225    0.009871
H     0.482355   -2.181008    1.036722    0.163938    0.761751    0.370443
H     1.303073   -0.904546   -0.042980    0.331305   -0.497974    0.091480
H     0.512596   -2.511067   -0.581735    0.214200    0.564478   -0.635851
O    -0.795369    0.352428   -0.270213    0.014509    0.001510   -0.001124
10
* Frequency(19) 1423.2300
C    -2.088921   -1.629462   -0.035933   -0.046792    0.051102   -0.007643
C    -0.801078   -0.841472   -0.094282   -0.052191    0.000383    0.003975
H    -2.944179   -0.947511   -0.119139    0.359160    0.536415   -0.022802
H    -2.154936   -2.200320    0.904047    0.200362   -0.759796   -0.468431
H    -2.122997   -2.363918   -0.857226    0.194136   -0.667680    0.609095
C     0.477054   -1.628132    0.080633   -0.043132   -0.048225    0.009871
H     0.500986   -2.094439    1.078821    0.163938    0.761751    0.370443
H     1.340724   -0.961139   -0.032584    0.331305   -0.497974    0.091480
H     0.536939   -2.446917   -0.653996    0.214200    0.564478   -0.635851
O    -0.793721    0.352600   -0.270341    0.014509    0.001510   -0.001124
