3
* (null), Energy   -1000.0000000
O    -3.937887   -0.059292    0.018883   -0.098664   -0.095268    0.030341
H    -2.974353    0.058521   -0.018638    1.390027    0.169468   -0.053972
H    -4.057910   -0.977779    0.311405    0.175966    1.342629   -0.427602
3
* Frequency(8) 3786.2474
O    -3.949100   -0.070119    0.022332   -0.098664   -0.095268    0.030341
H    -2.816383    0.077781   -0.024772    1.390027    0.169468   -0.053972
H    -4.037913   -0.825197    0.262810    0.175966    1.342629   -0.427602
3
* Frequency(8) 3786.2474
O    -3.959097   -0.079772    0.025406   -0.098664   -0.095268    0.030341
H    -2.675532    0.094953   -0.030241    1.390027    0.169468   -0.053972
H    -4.020082   -0.689148    0.219481    0.175966    1.342629   -0.427602
3
* Frequency(8) 3786.2474
O    -3.966796   -0.087207    0.027774   -0.098664   -0.095268    0.030341
H    -2.567063    0.108177   -0.034452    1.390027    0.169468   -0.053972
H    -4.006351   -0.584378    0.186114    0.175966    1.342629   -0.427602
3
* Frequency(8) 3786.2474
O    -3.971363   -0.091616    0.029178   -0.098664   -0.095268    0.030341
H    -2.502730    0.116020   -0.036950    1.390027    0.169468   -0.053972
H    -3.998207   -0.522239    0.166323    0.175966    1.342629   -0.427602
3
* Frequency(8) 3786.2474
O    -3.972302   -0.092522    0.029467   -0.098664   -0.095268    0.030341
H    -2.489505    0.117633   -0.037464    1.390027    0.169468   -0.053972
H    -3.996532   -0.509464    0.162255    0.175966    1.342629   -0.427602
3
* Frequency(8) 3786.2474
O    -3.969511   -0.089828    0.028608   -0.098664   -0.095268    0.030341
H    -2.528820    0.112840   -0.035937    1.390027    0.169468   -0.053972
H    -4.001509   -0.547439    0.174349    0.175966    1.342629   -0.427602
3
* Frequency(8) 3786.2474
O    -3.963293   -0.083824    0.026696   -0.098664   -0.095268    0.030341
H    -2.616416    0.102160   -0.032536    1.390027    0.169468   -0.053972
H    -4.012598   -0.632048    0.201296    0.175966    1.342629   -0.427602
3
* Frequency(8) 3786.2474
O    -3.954323   -0.075162    0.023938   -0.098664   -0.095268    0.030341
H    -2.742800    0.086752   -0.027629    1.390027    0.169468   -0.053972
H    -4.028597   -0.754122    0.240174    0.175966    1.342629   -0.427602
3
* Frequency(8) 3786.2474
O    -3.943571   -0.064780    0.020631   -0.098664   -0.095268    0.030341
H    -2.894276    0.068284   -0.021747    1.390027    0.169468   -0.053972
H    -4.047773   -0.900433    0.286771    0.175966    1.342629   -0.427602
3
* Frequency(8) 3786.2474
O    -3.932203   -0.053804    0.017136   -0.098664   -0.095268    0.030341
H    -3.054430    0.048759   -0.015529    1.390027    0.169468   -0.053972
H    -4.068047   -1.055126    0.336038    0.175966    1.342629   -0.427602
3
* Frequency(8) 3786.2474
O    -3.921452   -0.043422    0.013829   -0.098664   -0.095268    0.030341
H    -3.205906    0.030291   -0.009647    1.390027    0.169468   -0.053972
H    -4.087223   -1.201437    0.382635    0.175966    1.342629   -0.427602
3
* Frequency(8) 3786.2474
O    -3.912481   -0.034760    0.011071   -0.098664   -0.095268    0.030341
H    -3.332289    0.014883   -0.004740    1.390027    0.169468   -0.053972
H    -4.103222   -1.323511    0.421514    0.175966    1.342629   -0.427602
3
* Frequency(8) 3786.2474
O    -3.906263   -0.028757    0.009159   -0.098664   -0.095268    0.030341
H    -3.419885    0.004203   -0.001339    1.390027    0.169468   -0.053972
H    -4.114311   -1.408120    0.448460    0.175966    1.342629   -0.427602
3
* Frequency(8) 3786.2474
O    -3.903473   -0.026062    0.008300   -0.098664   -0.095268    0.030341
H    -3.459201   -0.000590    0.000188    1.390027    0.169468   -0.053972
H    -4.119288   -1.446094    0.460554    0.175966    1.342629   -0.427602
3
* Frequency(8) 3786.2474
O    -3.904412   -0.026969    0.008589   -0.098664   -0.095268    0.030341
H    -3.445975    0.001023   -0.000326    1.390027    0.169468   -0.053972
H    -4.117613   -1.433320    0.456486    0.175966    1.342629   -0.427602
3
* Frequency(8) 3786.2474
O    -3.908978   -0.031378    0.009993   -0.098664   -0.095268    0.030341
H    -3.381642    0.008866   -0.002824    1.390027    0.169468   -0.053972
H    -4.109469   -1.371181    0.436696    0.175966    1.342629   -0.427602
3
* Frequency(8) 3786.2474
O    -3.916677   -0.038812    0.012361   -0.098664   -0.095268    0.030341
H    -3.273173    0.022090   -0.007035    1.390027    0.169468   -0.053972
H    -4.095738   -1.266410    0.403328    0.175966    1.342629   -0.427602
3
* Frequency(8) 3786.2474
O    -3.926675   -0.048465    0.015435   -0.098664   -0.095268    0.030341
H    -3.132322    0.039262   -0.012504    1.390027    0.169468   -0.053972
H    -4.077908   -1.130362    0.359999    0.175966    1.342629   -0.427602
3
* Frequency(8) 3786.2474
O    -3.937887   -0.059292    0.018883   -0.098664   -0.095268    0.030341
H    -2.974353    0.058521   -0.018638    1.390027    0.169468   -0.053972
H    -4.057910   -0.977779    0.311405    0.175966    1.342629   -0.427602
