3
* (null), Energy   -1000.0000000
O    -3.937887   -0.059292    0.018883   -0.100772    0.095636   -0.030458
H    -2.974353    0.058521   -0.018638    0.202631   -1.330142    0.423625
H    -4.057910   -0.977779    0.311405    1.396830   -0.187790    0.059808
3
* Frequency(6) 1581.8419
O    -3.949339   -0.048424    0.015422   -0.100772    0.095636   -0.030458
H    -2.951325   -0.092642    0.029505    0.202631   -1.330142    0.423625
H    -3.899168   -0.999121    0.318201    1.396830   -0.187790    0.059808
3
* Frequency(6) 1581.8419
O    -3.959551   -0.038733    0.012336   -0.100772    0.095636   -0.030458
H    -2.930792   -0.227425    0.072431    0.202631   -1.330142    0.423625
H    -3.757627   -1.018149    0.324262    1.396830   -0.187790    0.059808
3
* Frequency(6) 1581.8419
O    -3.967414   -0.031270    0.009959   -0.100772    0.095636   -0.030458
H    -2.914980   -0.331221    0.105488    0.202631   -1.330142    0.423625
H    -3.648627   -1.032803    0.328929    1.396830   -0.187790    0.059808
3
* Frequency(6) 1581.8419
O    -3.972078   -0.026844    0.008549   -0.100772    0.095636   -0.030458
H    -2.905602   -0.392782    0.125094    0.202631   -1.330142    0.423625
H    -3.583979   -1.041495    0.331697    1.396830   -0.187790    0.059808
3
* Frequency(6) 1581.8419
O    -3.973037   -0.025934    0.008260   -0.100772    0.095636   -0.030458
H    -2.903674   -0.405438    0.129124    0.202631   -1.330142    0.423625
H    -3.570689   -1.043281    0.332266    1.396830   -0.187790    0.059808
3
* Frequency(6) 1581.8419
O    -3.970187   -0.028639    0.009121   -0.100772    0.095636   -0.030458
H    -2.909405   -0.367816    0.117143    0.202631   -1.330142    0.423625
H    -3.610197   -1.037970    0.330574    1.396830   -0.187790    0.059808
3
* Frequency(6) 1581.8419
O    -3.963836   -0.034666    0.011040   -0.100772    0.095636   -0.030458
H    -2.922175   -0.283994    0.090447    0.202631   -1.330142    0.423625
H    -3.698222   -1.026136    0.326805    1.396830   -0.187790    0.059808
3
* Frequency(6) 1581.8419
O    -3.954674   -0.043361    0.013810   -0.100772    0.095636   -0.030458
H    -2.940598   -0.163056    0.051930    0.202631   -1.330142    0.423625
H    -3.825224   -1.009062    0.321367    1.396830   -0.187790    0.059808
3
* Frequency(6) 1581.8419
O    -3.943692   -0.053783    0.017129   -0.100772    0.095636   -0.030458
H    -2.962680   -0.018105    0.005766    0.202631   -1.330142    0.423625
H    -3.977441   -0.988598    0.314850    1.396830   -0.187790    0.059808
3
* Frequency(6) 1581.8419
O    -3.932082   -0.064802    0.020638   -0.100772    0.095636   -0.030458
H    -2.986026    0.135148   -0.043042    0.202631   -1.330142    0.423625
H    -4.138379   -0.966961    0.307959    1.396830   -0.187790    0.059808
3
* Frequency(6) 1581.8419
O    -3.921100   -0.075223    0.023957   -0.100772    0.095636   -0.030458
H    -3.008107    0.280099   -0.089206    0.202631   -1.330142    0.423625
H    -4.290596   -0.946497    0.301442    1.396830   -0.187790    0.059808
3
* Frequency(6) 1581.8419
O    -3.911938   -0.083919    0.026727   -0.100772    0.095636   -0.030458
H    -3.026531    0.401037   -0.127723    0.202631   -1.330142    0.423625
H    -4.417599   -0.929423    0.296004    1.396830   -0.187790    0.059808
3
* Frequency(6) 1581.8419
O    -3.905588   -0.089945    0.028646   -0.100772    0.095636   -0.030458
H    -3.039300    0.484859   -0.154419    0.202631   -1.330142    0.423625
H    -4.505623   -0.917589    0.292235    1.396830   -0.187790    0.059808
3
* Frequency(6) 1581.8419
O    -3.902737   -0.092650    0.029507   -0.100772    0.095636   -0.030458
H    -3.045031    0.522481   -0.166400    0.202631   -1.330142    0.423625
H    -4.545131   -0.912277    0.290543    1.396830   -0.187790    0.059808
3
* Frequency(6) 1581.8419
O    -3.903696   -0.091740    0.029218   -0.100772    0.095636   -0.030458
H    -3.043103    0.509825   -0.162370    0.202631   -1.330142    0.423625
H    -4.531841   -0.914064    0.291112    1.396830   -0.187790    0.059808
3
* Frequency(6) 1581.8419
O    -3.908360   -0.087314    0.027808   -0.100772    0.095636   -0.030458
H    -3.033725    0.448264   -0.142764    0.202631   -1.330142    0.423625
H    -4.467193   -0.922755    0.293880    1.396830   -0.187790    0.059808
3
* Frequency(6) 1581.8419
O    -3.916224   -0.079851    0.025431   -0.100772    0.095636   -0.030458
H    -3.017913    0.344468   -0.109707    0.202631   -1.330142    0.423625
H    -4.358193   -0.937409    0.298547    1.396830   -0.187790    0.059808
3
* Frequency(6) 1581.8419
O    -3.926435   -0.070161    0.022345   -0.100772    0.095636   -0.030458
H    -2.997381    0.209685   -0.066781    0.202631   -1.330142    0.423625
H    -4.216653   -0.956438    0.304608    1.396830   -0.187790    0.059808
3
* Frequency(6) 1581.8419
O    -3.937887   -0.059292    0.018883   -0.100772    0.095636   -0.030458
H    -2.974353    0.058521   -0.018638    0.202631   -1.330142    0.423625
H    -4.057910   -0.977779    0.311405    1.396830   -0.187790    0.059808
