
                                 *****************
                                 * O   R   C   A *
                                 *****************

           --- An Ab Initio, DFT and Semiempirical electronic structure package ---

                  #######################################################
                  #                        -***-                        #
                  #          Department of theory and spectroscopy      #
                  #               Directorship: Frank Neese             #
                  #        Max Planck Institute fuer Kohlenforschung    #
                  #                Kaiser Wilhelm Platz 1               #
                  #                 D-45470 Muelheim/Ruhr               #
                  #                      Germany                        #
                  #                                                     #
                  #                  All rights reserved                #
                  #                        -***-                        #
                  #######################################################


                         Program Version 4.2.1 -  RELEASE  -


 With contributions from (in alphabetic order):
   Daniel Aravena         : Magnetic Suceptibility
   Michael Atanasov       : Ab Initio Ligand Field Theory (pilot matlab implementation)
   Alexander A. Auer      : GIAO ZORA, VPT2
   Ute Becker             : Parallelization
   Giovanni Bistoni       : ED, misc. LED, open-shell LED, HFLD
   Martin Brehm           : Molecular dynamics
   Dmytro Bykov           : SCF Hessian
   Vijay G. Chilkuri      : MRCI spin determinant printing, contributions to CSF-ICE
   Dipayan Datta          : RHF DLPNO-CCSD density
   Achintya Kumar Dutta   : EOM-CC, STEOM-CC
   Dmitry Ganyushin       : Spin-Orbit,Spin-Spin,Magnetic field MRCI
   Miquel Garcia          : C-PCM Hessian, Gaussian charge scheme
   Yang Guo               : DLPNO-NEVPT2, CIM, IAO-localization
   Andreas Hansen         : Spin unrestricted coupled pair/coupled cluster methods
   Benjamin Helmich-Paris : CASSCF linear response (MC-RPA)
   Lee Huntington         : MR-EOM, pCC
   Robert Izsak           : Overlap fitted RIJCOSX, COSX-SCS-MP3, EOM
   Christian Kollmar      : KDIIS, OOCD, Brueckner-CCSD(T), CCSD density
   Simone Kossmann        : Meta GGA functionals, TD-DFT gradient, OOMP2, MP2 Hessian
   Martin Krupicka        : AUTO-CI
   Lucas Lang             : DCDCAS
   Dagmar Lenk            : GEPOL surface, SMD
   Dimitrios Liakos       : Extrapolation schemes; Compound Job, initial MDCI parallelization
   Dimitrios Manganas     : Further ROCIS development; embedding schemes
   Dimitrios Pantazis     : SARC Basis sets
   Taras Petrenko         : DFT Hessian,TD-DFT gradient, ASA, ECA, R-Raman, ABS, FL, XAS/XES, NRVS
   Peter Pinski           : DLPNO-MP2, DLPNO-MP2 Gradient
   Christoph Reimann      : Effective Core Potentials
   Marius Retegan         : Local ZFS, SOC
   Christoph Riplinger    : Optimizer, TS searches, QM/MM, DLPNO-CCSD(T), (RO)-DLPNO pert. Triples
   Tobias Risthaus        : Range-separated hybrids, TD-DFT gradient, RPA, STAB
   Michael Roemelt        : Original ROCIS implementation
   Masaaki Saitow         : Open-shell DLPNO-CCSD energy and density
   Barbara Sandhoefer     : DKH picture change effects
   Avijit Sen             : IP-ROCIS
   Kantharuban Sivalingam : CASSCF convergence, NEVPT2, FIC-MRCI
   Bernardo de Souza      : ESD, SOC TD-DFT
   Georgi Stoychev        : AutoAux, RI-MP2 NMR
   Willem Van den Heuvel  : Paramagnetic NMR
   Boris Wezisla          : Elementary symmetry handling
   Frank Wennmohs         : Technical directorship


 We gratefully acknowledge several colleagues who have allowed us to
 interface, adapt or use parts of their codes:
   Stefan Grimme, W. Hujo, H. Kruse,             : VdW corrections, initial TS optimization,
                  C. Bannwarth                     DFT functionals, gCP, sTDA/sTD-DF
   Ed Valeev, F. Pavosevic, A. Kumar             : LibInt (2-el integral package), F12 methods
   Garnet Chan, S. Sharma, J. Yang, R. Olivares  : DMRG
   Ulf Ekstrom                                   : XCFun DFT Library
   Mihaly Kallay                                 : mrcc  (arbitrary order and MRCC methods)
   Andreas Klamt, Michael Diedenhofen            : otool_cosmo (COSMO solvation model)
   Jiri Pittner, Ondrej Demel                    : Mk-CCSD
   Frank Weinhold                                : gennbo (NPA and NBO analysis)
   Christopher J. Cramer and Donald G. Truhlar   : smd solvation model
   Lars Goerigk                                  : TD-DFT with DH, B97 family of functionals
   V. Asgeirsson, H. Jonsson                     : NEB implementation
   FAccTs GmbH                                   : IRC, NEB, NEB-TS, Multilevel, MM, QM/MM, CI optimization
   S Lehtola, MJT Oliveira, MAL Marques          : LibXC Library


 Your calculation uses the libint2 library for the computation of 2-el integrals
 For citations please refer to: http://libint.valeyev.net

 Your ORCA version has been built with support for libXC version: 4.2.3
 For citations please refer to: https://tddft.org/programs/libxc/

 This ORCA versions uses:
   CBLAS   interface :  Fast vector & matrix operations
   LAPACKE interface :  Fast linear algebra routines


----- Orbital basis set information -----
Your calculation utilizes the basis: def2-TZVP
   F. Weigend and R. Ahlrichs, Phys. Chem. Chem. Phys. 7, 3297 (2005).

================================================================================
                                        WARNINGS
                       Please study these warnings very carefully!
================================================================================


WARNING: Geometry Optimization
  ===> : Switching off AutoStart
         For restart on a previous wavefunction, please use MOREAD

INFO   : the flag for use of LIBINT has been found!

================================================================================
                                       INPUT FILE
================================================================================
NAME = H2O_opt_HF.inp
|  1> !HF OPT FREQ def2-TZVP 

|  2> * xyz 0 1

|  3>    O       -4.00000        0.00000        0.00000

|  4>    H       -2.97365        0.00000        0.00000

|  5>    H       -3.99650       -0.97855        0.31165

|  6> *

|  7> 

|  8> 
|  9>                          ****END OF INPUT****
================================================================================

                       *****************************
                       * Geometry Optimization Run *
                       *****************************

Geometry optimization settings:
Update method            Update   .... BFGS
Choice of coordinates    CoordSys .... Z-matrix Internals
Initial Hessian          InHess   .... Almoef's Model

Convergence Tolerances:
Energy Change            TolE     ....  5.0000e-06 Eh
Max. Gradient            TolMAXG  ....  3.0000e-04 Eh/bohr
RMS Gradient             TolRMSG  ....  1.0000e-04 Eh/bohr
Max. Displacement        TolMAXD  ....  4.0000e-03 bohr
RMS Displacement         TolRMSD  ....  2.0000e-03 bohr
Strict Convergence                ....  False
------------------------------------------------------------------------------
                        ORCA OPTIMIZATION COORDINATE SETUP
------------------------------------------------------------------------------

The optimization will be done in new redundant internal coordinates
Making redundant internal coordinates   ...  (new redundants) done
Evaluating the initial hessian          ...  (Almloef) done
Evaluating the coordinates              ...  done
Calculating the B-matrix                .... done
Calculating the G-matrix                .... done
Diagonalizing the G-matrix              .... done
The first mode is                       ....    0
The number of degrees of freedom        ....    3

    -----------------------------------------------------------------
                    Redundant Internal Coordinates


    -----------------------------------------------------------------
         Definition                    Initial Value    Approx d2E/dq
    -----------------------------------------------------------------
      1. B(H   1,O   0)                  1.0263         0.407483   
      2. B(H   2,O   0)                  1.0270         0.406534   
      3. A(H   1,O   0,H   2)           89.8047         0.297400   
    -----------------------------------------------------------------

Number of atoms                         .... 3
Number of degrees of freedom            .... 3

         *************************************************************
         *                GEOMETRY OPTIMIZATION CYCLE   1            *
         *************************************************************
---------------------------------
CARTESIAN COORDINATES (ANGSTROEM)
---------------------------------
  O     -4.000000    0.000000    0.000000
  H     -2.973650    0.000000    0.000000
  H     -3.996500   -0.978550    0.311650

----------------------------
CARTESIAN COORDINATES (A.U.)
----------------------------
  NO LB      ZA    FRAG     MASS         X           Y           Z
   0 O     8.0000    0    15.999   -7.558905    0.000000    0.000000
   1 H     1.0000    0     1.008   -5.619384    0.000000    0.000000
   2 H     1.0000    0     1.008   -7.552290   -1.849192    0.588933

--------------------------------
INTERNAL COORDINATES (ANGSTROEM)
--------------------------------
 O      0   0   0     0.000000000000     0.00000000     0.00000000
 H      1   0   0     1.026350000000     0.00000000     0.00000000
 H      1   2   0     1.026984943901    89.80473364     0.00000000

---------------------------
INTERNAL COORDINATES (A.U.)
---------------------------
 O      0   0   0     0.000000000000     0.00000000     0.00000000
 H      1   0   0     1.939520417550     0.00000000     0.00000000
 H      1   2   0     1.940720287634    89.80473364     0.00000000

---------------------
BASIS SET INFORMATION
---------------------
There are 2 groups of distinct atoms

 Group   1 Type O   : 11s6p2d1f contracted to 5s3p2d1f pattern {62111/411/11/1}
 Group   2 Type H   : 5s1p contracted to 3s1p pattern {311/1}

Atom   0O    basis set group =>   1
Atom   1H    basis set group =>   2
Atom   2H    basis set group =>   2
------------------------------------------------------------------------------
                           ORCA GTO INTEGRAL CALCULATION
------------------------------------------------------------------------------

                         BASIS SET STATISTICS AND STARTUP INFO

 # of primitive gaussian shells          ...   32
 # of primitive gaussian functions       ...   62
 # of contracted shells                  ...   19
 # of contracted basis functions         ...   43
 Highest angular momentum                ...    3
 Maximum contraction depth               ...    6
 Integral package used                   ... LIBINT
 Integral threshhold            Thresh   ...  2.500e-11
 Primitive cut-off              TCut     ...  2.500e-12


------------------------------ INTEGRAL EVALUATION ----------------------------


 * One electron integrals 
 Pre-screening matrix                    ... done
 Shell pair data                         ... done (   0.001 sec)

Timings:
 Total evaluation time               ...     0.002 sec (   0.000 min)
 One electron matrix time            ...     0.006 sec (   0.000 min) =300.0%
 Schwartz matrix evaluation time     ...     0.130 sec (   0.002 min) =6500.0%

-------------------------------------------------------------------------------
                                 ORCA SCF
-------------------------------------------------------------------------------

------------
SCF SETTINGS
------------
Hamiltonian:
 Ab initio Hamiltonian  Method          .... Hartree-Fock(GTOs)


General Settings:
 Integral files         IntName         .... H2O_opt_HF
 Hartree-Fock type      HFTyp           .... RHF
 Total Charge           Charge          ....    0
 Multiplicity           Mult            ....    1
 Number of Electrons    NEL             ....   10
 Basis Dimension        Dim             ....   43
 Nuclear Repulsion      ENuc            ....      8.6119999027 Eh

Convergence Acceleration:
 DIIS                   CNVDIIS         .... on
   Start iteration      DIISMaxIt       ....    12
   Startup error        DIISStart       ....  0.200000
   # of expansion vecs  DIISMaxEq       ....     5
   Bias factor          DIISBfac        ....   1.050
   Max. coefficient     DIISMaxC        ....  10.000
 Newton-Raphson         CNVNR           .... off
 SOSCF                  CNVSOSCF        .... on
   Start iteration      SOSCFMaxIt      ....   150
   Startup grad/error   SOSCFStart      ....  0.003300
 Level Shifting         CNVShift        .... on
   Level shift para.    LevelShift      ....    0.2500
   Turn off err/grad.   ShiftErr        ....    0.0010
 Zerner damping         CNVZerner       .... off
 Static damping         CNVDamp         .... on
   Fraction old density DampFac         ....    0.7000
   Max. Damping (<1)    DampMax         ....    0.9800
   Min. Damping (>=0)   DampMin         ....    0.0000
   Turn off err/grad.   DampErr         ....    0.1000
 Fernandez-Rico         CNVRico         .... off

SCF Procedure:
 Maximum # iterations   MaxIter         ....   125
 SCF integral mode      SCFMode         .... Direct
   Integral package                     .... LIBINT
 Reset frequency        DirectResetFreq ....    20
 Integral Threshold     Thresh          ....  2.500e-11 Eh
 Primitive CutOff       TCut            ....  2.500e-12 Eh

Convergence Tolerance:
 Convergence Check Mode ConvCheckMode   .... Total+1el-Energy
 Convergence forced     ConvForced      .... 0
 Energy Change          TolE            ....  1.000e-08 Eh
 1-El. energy change                    ....  1.000e-05 Eh
 Orbital Gradient       TolG            ....  1.000e-05
 Orbital Rotation angle TolX            ....  1.000e-05
 DIIS Error             TolErr          ....  5.000e-07


Diagonalization of the overlap matrix:
Smallest eigenvalue                        ... 1.112e-02
Time for diagonalization                   ...    0.001 sec
Threshold for overlap eigenvalues          ... 1.000e-08
Number of eigenvalues below threshold      ... 0
Time for construction of square roots      ...    0.001 sec
Total time needed                          ...    0.002 sec

-------------------
DFT GRID GENERATION
-------------------

General Integration Accuracy     IntAcc      ...  4.340
Radial Grid Type                 RadialGrid  ... Gauss-Chebyshev
Angular Grid (max. acc.)         AngularGrid ... Lebedev-110
Angular grid pruning method      GridPruning ... 3 (G Style)
Weight generation scheme         WeightScheme... Becke
Basis function cutoff            BFCut       ...    1.0000e-11
Integration weight cutoff        WCut        ...    1.0000e-14
Grids for H and He will be reduced by one unit

# of grid points (after initial pruning)     ...   3304 (   0.0 sec)
# of grid points (after weights+screening)   ...   3273 (   0.0 sec)
nearest neighbour list constructed           ...    0.0 sec
Grid point re-assignment to atoms done       ...    0.0 sec
Grid point division into batches done        ...    0.0 sec
Reduced shell lists constructed in    0.0 sec

Total number of grid points                  ...     3273
Total number of batches                      ...       52
Average number of points per batch           ...       62
Average number of grid points per atom       ...     1091
Average number of shells per batch           ...    17.00 (89.47%)
Average number of basis functions per batch  ...    39.23 (91.22%)
Average number of large shells per batch     ...    16.11 (94.78%)
Average number of large basis fcns per batch ...    37.21 (94.85%)
Maximum spatial batch extension              ...  21.59, 21.13, 25.65 au
Average spatial batch extension              ...   4.93,  5.29,  5.67 au

Time for grid setup =    0.007 sec

------------------------------
INITIAL GUESS: MODEL POTENTIAL
------------------------------
Loading Hartree-Fock densities                     ... done
Calculating cut-offs                               ... done
Setting up the integral package                    ... done
Initializing the effective Hamiltonian             ... done
Starting the Coulomb interaction                   ... done (   0.0 sec)
Reading the grid                                   ... done
Mapping shells                                     ... done
Starting the XC term evaluation                    ... done (   0.0 sec)
Transforming the Hamiltonian                       ... done (   0.0 sec)
Diagonalizing the Hamiltonian                      ... done (   0.0 sec)
Back transforming the eigenvectors                 ... done (   0.0 sec)
Now organizing SCF variables                       ... done
                      ------------------
                      INITIAL GUESS DONE (   0.1 sec)
                      ------------------
--------------
SCF ITERATIONS
--------------
ITER       Energy         Delta-E        Max-DP      RMS-DP      [F,P]     Damp
               ***  Starting incremental Fock matrix formation  ***
  0    -75.9421801535   0.000000000000 0.04110685  0.00248595  0.3382273 0.7000
  1    -75.9821023191  -0.039922165633 0.02790364  0.00170854  0.2174999 0.7000
                               ***Turning on DIIS***
  2    -76.0025070575  -0.020404738328 0.01594855  0.00091092  0.1646942 0.7000
  3    -76.1718850317  -0.169377974242 0.00707020  0.00039014  0.1221982 0.7000
  4    -76.1351100658   0.036774965938 0.01551960  0.00092692  0.0863260 0.0000
  5    -76.0515172323   0.083592833446 0.00209916  0.00016210  0.0066654 0.0000
                      *** Initiating the SOSCF procedure ***
                           *** Shutting down DIIS ***
                      *** Re-Reading the Fockian *** 
                      *** Removing any level shift *** 
ITER      Energy       Delta-E        Grad      Rot      Max-DP    RMS-DP
  6    -76.04396792   0.0075493117  0.001510  0.001510  0.001420  0.000088
               *** Restarting incremental Fock matrix formation ***
  7    -76.04152130   0.0024466183  0.000390  0.000547  0.000447  0.000036
  8    -76.04152299  -0.0000016922  0.000314  0.000488  0.000619  0.000032
  9    -76.04152340  -0.0000004078  0.000086  0.000077  0.000100  0.000005
 10    -76.04152344  -0.0000000328  0.000008  0.000007  0.000006  0.000001
                 **** Energy Check signals convergence ****
              ***Rediagonalizing the Fockian in SOSCF/NRSCF***

               *****************************************************
               *                     SUCCESS                       *
               *           SCF CONVERGED AFTER  11 CYCLES          *
               *****************************************************


----------------
TOTAL SCF ENERGY
----------------

Total Energy       :          -76.04152344 Eh           -2069.19505 eV

Components:
Nuclear Repulsion  :            8.61199990 Eh             234.34443 eV
Electronic Energy  :          -84.65352334 Eh           -2303.53948 eV
One Electron Energy:         -121.98432919 Eh           -3319.36235 eV
Two Electron Energy:           37.33080585 Eh            1015.82287 eV

Virial components:
Potential Energy   :         -151.82540002 Eh           -4131.37917 eV
Kinetic Energy     :           75.78387659 Eh            2062.18412 eV
Virial Ratio       :            2.00339976


---------------
SCF CONVERGENCE
---------------

  Last Energy change         ...   -3.9510e-10  Tolerance :   1.0000e-08
  Last MAX-Density change    ...    2.7276e-06  Tolerance :   1.0000e-07
  Last RMS-Density change    ...    2.8565e-07  Tolerance :   5.0000e-09
  Last Orbital Gradient      ...    2.6972e-06  Tolerance :   1.0000e-05
  Last Orbital Rotation      ...    3.9703e-06  Tolerance :   1.0000e-05

             **** THE GBW FILE WAS UPDATED (H2O_opt_HF.gbw) ****
             **** DENSITY FILE WAS UPDATED (H2O_opt_HF.scfp) ****
             **** ENERGY FILE WAS UPDATED (H2O_opt_HF.en.tmp) ****
             **** THE GBW FILE WAS UPDATED (H2O_opt_HF.gbw) ****
             **** DENSITY FILE WAS UPDATED (H2O_opt_HF.scfp) ****
----------------
ORBITAL ENERGIES
----------------

  NO   OCC          E(Eh)            E(eV) 
   0   2.0000     -20.578532      -559.9703 
   1   2.0000      -1.326959       -36.1084 
   2   2.0000      -0.651626       -17.7316 
   3   2.0000      -0.596423       -16.2295 
   4   2.0000      -0.507824       -13.8186 
   5   0.0000       0.117087         3.1861 
   6   0.0000       0.191686         5.2161 
   7   0.0000       0.485720        13.2171 
   8   0.0000       0.571082        15.5399 
   9   0.0000       0.596922        16.2431 
  10   0.0000       0.625284        17.0148 
  11   0.0000       0.749352        20.3909 
  12   0.0000       0.771136        20.9837 
  13   0.0000       1.298585        35.3363 
  14   0.0000       1.462287        39.7908 
  15   0.0000       1.487029        40.4641 
  16   0.0000       1.827165        49.7197 
  17   0.0000       1.936247        52.6880 
  18   0.0000       2.037104        55.4324 
  19   0.0000       2.281918        62.0941 
  20   0.0000       2.290751        62.3345 
  21   0.0000       2.364656        64.3456 
  22   0.0000       2.531314        68.8805 
  23   0.0000       2.683488        73.0214 
  24   0.0000       2.806012        76.3555 
  25   0.0000       2.878377        78.3246 
  26   0.0000       3.011508        81.9473 
  27   0.0000       3.102358        84.4195 
  28   0.0000       4.044481       110.0559 
  29   0.0000       4.115642       111.9923 
  30   0.0000       5.543456       150.8451 
  31   0.0000       5.698458       155.0629 
  32   0.0000       5.712218       155.4374 
  33   0.0000       5.766531       156.9153 
  34   0.0000       5.817921       158.3137 
  35   0.0000       6.394687       174.0083 
  36   0.0000       6.463875       175.8910 
  37   0.0000       6.840946       186.1516 
  38   0.0000       6.851250       186.4320 
  39   0.0000       6.989922       190.2055 
  40   0.0000       7.169065       195.0802 
  41   0.0000       7.556439       205.6212 
  42   0.0000      44.805476      1219.2190 

                    ********************************
                    * MULLIKEN POPULATION ANALYSIS *
                    ********************************

-----------------------
MULLIKEN ATOMIC CHARGES
-----------------------
   0 O :   -0.655877
   1 H :    0.327948
   2 H :    0.327928
Sum of atomic charges:   -0.0000000

--------------------------------
MULLIKEN REDUCED ORBITAL CHARGES
--------------------------------
  0 O s       :     3.853882  s :     3.853882
      pz      :     1.918565  p :     4.771494
      px      :     1.400478
      py      :     1.452451
      dz2     :     0.004399  d :     0.029257
      dxz     :     0.001283
      dyz     :     0.003803
      dx2y2   :     0.018106
      dxy     :     0.001668
      f0      :     0.000220  f :     0.001243
      f+1     :     0.000339
      f-1     :     0.000171
      f+2     :     0.000172
      f-2     :     0.000012
      f+3     :     0.000210
      f-3     :     0.000120
  1 H s       :     0.630452  s :     0.630452
      pz      :     0.012845  p :     0.041600
      px      :     0.018418
      py      :     0.010337
  2 H s       :     0.630531  s :     0.630531
      pz      :     0.013590  p :     0.041541
      px      :     0.010028
      py      :     0.017923


                     *******************************
                     * LOEWDIN POPULATION ANALYSIS *
                     *******************************

----------------------
LOEWDIN ATOMIC CHARGES
----------------------
   0 O :   -0.384830
   1 H :    0.192231
   2 H :    0.192599

-------------------------------
LOEWDIN REDUCED ORBITAL CHARGES
-------------------------------
  0 O s       :     3.559042  s :     3.559042
      pz      :     1.880829  p :     4.788379
      px      :     1.431383
      py      :     1.476167
      dz2     :     0.005910  d :     0.035437
      dxz     :     0.000505
      dyz     :     0.004400
      dx2y2   :     0.023903
      dxy     :     0.000719
      f0      :     0.000174  f :     0.001972
      f+1     :     0.000417
      f-1     :     0.000121
      f+2     :     0.000285
      f-2     :     0.000002
      f+3     :     0.000567
      f-3     :     0.000406
  1 H s       :     0.671374  s :     0.671374
      pz      :     0.035276  p :     0.136395
      px      :     0.075037
      py      :     0.026082
  2 H s       :     0.671286  s :     0.671286
      pz      :     0.039778  p :     0.136116
      px      :     0.025003
      py      :     0.071335


                      *****************************
                      * MAYER POPULATION ANALYSIS *
                      *****************************

  NA   - Mulliken gross atomic population
  ZA   - Total nuclear charge
  QA   - Mulliken gross atomic charge
  VA   - Mayer's total valence
  BVA  - Mayer's bonded valence
  FA   - Mayer's free valence

  ATOM       NA         ZA         QA         VA         BVA        FA
  0 O      8.6559     8.0000    -0.6559     1.7991     1.7991    -0.0000
  1 H      0.6721     1.0000     0.3279     0.9027     0.9027    -0.0000
  2 H      0.6721     1.0000     0.3279     0.9026     0.9026    -0.0000

  Mayer bond orders larger than 0.100000
B(  0-O ,  1-H ) :   0.8996 B(  0-O ,  2-H ) :   0.8996 

-------
TIMINGS
-------

Total SCF time: 0 days 0 hours 0 min 1 sec 

Total time                  ....       1.980 sec
Sum of individual times     ....       1.819 sec  ( 91.9%)

Fock matrix formation       ....       1.721 sec  ( 86.9%)
Diagonalization             ....       0.002 sec  (  0.1%)
Density matrix formation    ....       0.000 sec  (  0.0%)
Population analysis         ....       0.002 sec  (  0.1%)
Initial guess               ....       0.083 sec  (  4.2%)
Orbital Transformation      ....       0.000 sec  (  0.0%)
Orbital Orthonormalization  ....       0.000 sec  (  0.0%)
DIIS solution               ....       0.002 sec  (  0.1%)
SOSCF solution              ....       0.002 sec  (  0.1%)

-------------------------   --------------------
FINAL SINGLE POINT ENERGY       -76.041523435477
-------------------------   --------------------

------------------------------------------------------------------------------
                         ORCA SCF GRADIENT CALCULATION
------------------------------------------------------------------------------

Gradient of the Hartree-Fock SCF energy:
Hartree-Fock type                ... RHF
Number of operators              ...    1
Number of atoms                  ...    3
Basis set dimensions             ...   43
Integral neglect threshold       ... 2.5e-11
Integral primitive cutoff        ... 2.5e-12

Nuclear repulsion gradient       ... done
One Electron Gradient            ... done
Pre-screening matrix             ... done
Starting the two electron gradient:
Two electron gradient done

------------------
CARTESIAN GRADIENT
------------------

   1   O   :   -0.089005300    0.084922815   -0.027046437
   2   H   :    0.066439345   -0.021298023    0.006783024
   3   H   :    0.022565955   -0.063624792    0.020263413

Difference to translation invariance:
           :   -0.0000000000   -0.0000000000   -0.0000000000

Norm of the cartesian gradient     ...    0.1604589725
RMS gradient                       ...    0.0534863242
MAX gradient                       ...    0.0890052999

-------
TIMINGS
-------

Total SCF gradient time            ...        0.183 sec

One electron gradient       ....       0.001 sec  (  0.5%)
Prescreening matrices       ....       0.016 sec  (  8.7%)
Two electron gradient       ....       0.056 sec  ( 30.6%)
------------------------------------------------------------------------------
                         ORCA GEOMETRY RELAXATION STEP
------------------------------------------------------------------------------

Reading the OPT-File                    .... done
Getting information on internals        .... done
Copying old internal coords+grads       .... done
Making the new internal coordinates     .... (new redundants).... done
Validating the new internal coordinates .... (new redundants).... done
Calculating the B-matrix                .... done
Calculating the G,G- and P matrices     .... done
Transforming gradient to internals      .... done
Projecting the internal gradient        .... done
Number of atoms                         ....   3
Number of internal coordinates          ....   3
Current Energy                          ....   -76.041523435 Eh
Current gradient norm                   ....     0.160458973 Eh/bohr
Maximum allowed component of the step   ....  0.300
Current trust radius                    ....  0.300
Evaluating the initial hessian          ....  (Almloef) done
Projecting the Hessian                  .... done
Forming the augmented Hessian           .... done
Diagonalizing the augmented Hessian     .... done
Last element of RFO vector              ....  0.968890692
Lowest eigenvalues of augmented Hessian:
 -0.026306514  0.302255704  0.407001408
Length of the computed step             ....  0.255435466
The final length of the internal step   ....  0.255435466
Converting the step to cartesian space:
 Initial RMS(Int)=    0.1474757352
Transforming coordinates:
 Iter   0:  RMS(Cart)=    0.0551641208 RMS(Int)=    0.1478021998
 Iter   1:  RMS(Cart)=    0.0053563510 RMS(Int)=    0.0081623968
 Iter   2:  RMS(Cart)=    0.0004328442 RMS(Int)=    0.0007151432
 Iter   3:  RMS(Cart)=    0.0000119891 RMS(Int)=    0.0000286375
 Iter   4:  RMS(Cart)=    0.0000013975 RMS(Int)=    0.0000021889
 Iter   5:  RMS(Cart)=    0.0000001466 RMS(Int)=    0.0000002315
 Iter   6:  RMS(Cart)=    0.0000000062 RMS(Int)=    0.0000000120
done
Storing new coordinates                 .... done

                                .--------------------.
          ----------------------|Geometry convergence|-------------------------
          Item                value                   Tolerance       Converged
          ---------------------------------------------------------------------
          RMS gradient        0.0598958921            0.0001000000      NO
          MAX gradient        0.0668501653            0.0003000000      NO
          RMS step            0.1474757352            0.0020000000      NO
          MAX step            0.1544453713            0.0040000000      NO
          ........................................................
          Max(Bonds)      0.0817      Max(Angles)    7.67
          Max(Dihed)        0.00      Max(Improp)    0.00
          ---------------------------------------------------------------------

The optimization has not yet converged - more geometry cycles are needed


    ---------------------------------------------------------------------------
                         Redundant Internal Coordinates
                            (Angstroem and degrees)

        Definition                    Value    dE/dq     Step     New-Value
    ----------------------------------------------------------------------------
     1. B(H   1,O   0)                1.0263  0.066439 -0.0810    0.9453   
     2. B(H   2,O   0)                1.0270  0.066850 -0.0817    0.9453   
     3. A(H   1,O   0,H   2)           89.80 -0.043352    7.67     97.48   
    ----------------------------------------------------------------------------

         *************************************************************
         *                GEOMETRY OPTIMIZATION CYCLE   2            *
         *************************************************************
---------------------------------
CARTESIAN COORDINATES (ANGSTROEM)
---------------------------------
  O     -3.951152   -0.046703    0.014874
  H     -3.007981    0.013728   -0.004372
  H     -4.011017   -0.945576    0.301148

----------------------------
CARTESIAN COORDINATES (A.U.)
----------------------------
  NO LB      ZA    FRAG     MASS         X           Y           Z
   0 O     8.0000    0    15.999   -7.466595   -0.088256    0.028108
   1 H     1.0000    0     1.008   -5.684260    0.025943   -0.008262
   2 H     1.0000    0     1.008   -7.579724   -1.786879    0.569088

--------------------------------
INTERNAL COORDINATES (ANGSTROEM)
--------------------------------
 O      0   0   0     0.000000000000     0.00000000     0.00000000
 H      1   0   0     0.945301052523     0.00000000     0.00000000
 H      1   2   0     0.945255973376    97.47805326     0.00000000

---------------------------
INTERNAL COORDINATES (A.U.)
---------------------------
 O      0   0   0     0.000000000000     0.00000000     0.00000000
 H      1   0   0     1.786360103377     0.00000000     0.00000000
 H      1   2   0     1.786274916134    97.47805326     0.00000000


Diagonalization of the overlap matrix:
Smallest eigenvalue                        ... 7.801e-03
Time for diagonalization                   ...    0.001 sec
Threshold for overlap eigenvalues          ... 1.000e-08
Number of eigenvalues below threshold      ... 0
Time for construction of square roots      ...    0.000 sec
Total time needed                          ...    0.001 sec

--------------
SCF ITERATIONS
--------------
ITER       Energy         Delta-E        Max-DP      RMS-DP      [F,P]     Damp
               ***  Starting incremental Fock matrix formation  ***
  0    -76.0522829471   0.000000000000 0.00482542  0.00042909  0.0470107 0.7000
  1    -76.0536244776  -0.001341530474 0.00357605  0.00035732  0.0315124 0.7000
                               ***Turning on DIIS***
  2    -76.0546060834  -0.000981605772 0.00779972  0.00089939  0.0235154 0.0000
  3    -76.0526611538   0.001944929538 0.00462124  0.00032835  0.0111267 0.0000
  4    -76.0465318496   0.006129304263 0.00218503  0.00014579  0.0051459 0.0000
                      *** Initiating the SOSCF procedure ***
                           *** Shutting down DIIS ***
                      *** Re-Reading the Fockian *** 
                      *** Removing any level shift *** 
ITER      Energy       Delta-E        Grad      Rot      Max-DP    RMS-DP
  5    -76.05562517  -0.0090933157  0.001483  0.001483  0.001005  0.000084
               *** Restarting incremental Fock matrix formation ***
  6    -76.05739109  -0.0017659278  0.000527  0.000727  0.000463  0.000039
  7    -76.05739256  -0.0000014632  0.000193  0.000545  0.000380  0.000030
  8    -76.05739289  -0.0000003383  0.000068  0.000050  0.000063  0.000005
  9    -76.05739292  -0.0000000265  0.000014  0.000017  0.000014  0.000001
 10    -76.05739292  -0.0000000010  0.000003  0.000003  0.000002  0.000000
                 **** Energy Check signals convergence ****
              ***Rediagonalizing the Fockian in SOSCF/NRSCF***

               *****************************************************
               *                     SUCCESS                       *
               *           SCF CONVERGED AFTER  11 CYCLES          *
               *****************************************************

Total Energy       :          -76.05739292 Eh           -2069.62688 eV
  Last Energy change         ...   -5.5977e-11  Tolerance :   1.0000e-08
  Last MAX-Density change    ...    8.0521e-07  Tolerance :   1.0000e-07
             **** THE GBW FILE WAS UPDATED (H2O_opt_HF.gbw) ****
             **** DENSITY FILE WAS UPDATED (H2O_opt_HF.scfp) ****
             **** ENERGY FILE WAS UPDATED (H2O_opt_HF.en.tmp) ****
             **** THE GBW FILE WAS UPDATED (H2O_opt_HF.gbw) ****
             **** DENSITY FILE WAS UPDATED (H2O_opt_HF.scfp) ****
Total SCF time: 0 days 0 hours 0 min 2 sec 

-------------------------   --------------------
FINAL SINGLE POINT ENERGY       -76.057392922083
-------------------------   --------------------

------------------------------------------------------------------------------
                         ORCA SCF GRADIENT CALCULATION
------------------------------------------------------------------------------

Gradient of the Hartree-Fock SCF energy:
Hartree-Fock type                ... RHF
Number of operators              ...    1
Number of atoms                  ...    3
Basis set dimensions             ...   43
Integral neglect threshold       ... 2.5e-11
Integral primitive cutoff        ... 2.5e-12

Nuclear repulsion gradient       ... done
One Electron Gradient            ... done
Pre-screening matrix             ... done
Starting the two electron gradient:
Two electron gradient done

------------------
CARTESIAN GRADIENT
------------------

   1   O   :   -0.015731312    0.014880094   -0.004739034
   2   H   :   -0.000227417   -0.015203247    0.004841952
   3   H   :    0.015958729    0.000323152   -0.000102918

Difference to translation invariance:
           :   -0.0000000000   -0.0000000000   -0.0000000000

Norm of the cartesian gradient     ...    0.0316351198
RMS gradient                       ...    0.0105450399
MAX gradient                       ...    0.0159587288

-------
TIMINGS
-------

Total SCF gradient time            ...        0.221 sec

One electron gradient       ....       0.003 sec  (  1.4%)
Prescreening matrices       ....       0.028 sec  ( 12.7%)
Two electron gradient       ....       0.072 sec  ( 32.6%)
------------------------------------------------------------------------------
                         ORCA GEOMETRY RELAXATION STEP
------------------------------------------------------------------------------

Reading the OPT-File                    .... done
Getting information on internals        .... done
Copying old internal coords+grads       .... done
Making the new internal coordinates     .... (new redundants).... done
Validating the new internal coordinates .... (new redundants).... done
Calculating the B-matrix                .... done
Calculating the G,G- and P matrices     .... done
Transforming gradient to internals      .... done
Projecting the internal gradient        .... done
Number of atoms                         ....   3
Number of internal coordinates          ....   3
Current Energy                          ....   -76.057392922 Eh
Current gradient norm                   ....     0.031635120 Eh/bohr
Maximum allowed component of the step   ....  0.300
Current trust radius                    ....  0.300
Updating the Hessian (BFGS)             .... done
Forming the augmented Hessian           .... done
Diagonalizing the augmented Hessian     .... done
Last element of RFO vector              ....  0.992671833
Lowest eigenvalues of augmented Hessian:
 -0.003399221  0.221973160  0.407010434
Length of the computed step             ....  0.121733430
The final length of the internal step   ....  0.121733430
Converting the step to cartesian space:
 Initial RMS(Int)=    0.0702828283
Transforming coordinates:
 Iter   0:  RMS(Cart)=    0.0380976312 RMS(Int)=    0.0703379496
 Iter   1:  RMS(Cart)=    0.0014117715 RMS(Int)=    0.0027019106
 Iter   2:  RMS(Cart)=    0.0000685866 RMS(Int)=    0.0001295981
 Iter   3:  RMS(Cart)=    0.0000052783 RMS(Int)=    0.0000099287
 Iter   4:  RMS(Cart)=    0.0000002437 RMS(Int)=    0.0000004739
 Iter   5:  RMS(Cart)=    0.0000000196 RMS(Int)=    0.0000000362
done
Storing new coordinates                 .... done

                                .--------------------.
          ----------------------|Geometry convergence|-------------------------
          Item                value                   Tolerance       Converged
          ---------------------------------------------------------------------
          Energy change      -0.0158694866            0.0000050000      NO
          RMS gradient        0.0164387058            0.0001000000      NO
          MAX gradient        0.0284110835            0.0003000000      NO
          RMS step            0.0702828283            0.0020000000      NO
          MAX step            0.1206911709            0.0040000000      NO
          ........................................................
          Max(Bonds)      0.0060      Max(Angles)    6.92
          Max(Dihed)        0.00      Max(Improp)    0.00
          ---------------------------------------------------------------------

The optimization has not yet converged - more geometry cycles are needed


    ---------------------------------------------------------------------------
                         Redundant Internal Coordinates
                            (Angstroem and degrees)

        Definition                    Value    dE/dq     Step     New-Value
    ----------------------------------------------------------------------------
     1. B(H   1,O   0)                0.9453 -0.001297 -0.0060    0.9393   
     2. B(H   2,O   0)                0.9453 -0.001349 -0.0059    0.9393   
     3. A(H   1,O   0,H   2)           97.48 -0.028411    6.92    104.39   
    ----------------------------------------------------------------------------

         *************************************************************
         *                GEOMETRY OPTIMIZATION CYCLE   3            *
         *************************************************************
---------------------------------
CARTESIAN COORDINATES (ANGSTROEM)
---------------------------------
  O     -3.928650   -0.068055    0.021674
  H     -2.996928    0.045739   -0.014567
  H     -4.044572   -0.956234    0.304543

----------------------------
CARTESIAN COORDINATES (A.U.)
----------------------------
  NO LB      ZA    FRAG     MASS         X           Y           Z
   0 O     8.0000    0    15.999   -7.424073   -0.128605    0.040958
   1 H     1.0000    0     1.008   -5.663373    0.086434   -0.027528
   2 H     1.0000    0     1.008   -7.643133   -1.807021    0.575503

--------------------------------
INTERNAL COORDINATES (ANGSTROEM)
--------------------------------
 O      0   0   0     0.000000000000     0.00000000     0.00000000
 H      1   0   0     0.939344746186     0.00000000     0.00000000
 H      1   2   0     0.939316530378   104.39314814     0.00000000

---------------------------
INTERNAL COORDINATES (A.U.)
---------------------------
 O      0   0   0     0.000000000000     0.00000000     0.00000000
 H      1   0   0     1.775104315629     0.00000000     0.00000000
 H      1   2   0     1.775050995480   104.39314814     0.00000000


Diagonalization of the overlap matrix:
Smallest eigenvalue                        ... 7.687e-03
Time for diagonalization                   ...    0.001 sec
Threshold for overlap eigenvalues          ... 1.000e-08
Number of eigenvalues below threshold      ... 0
Time for construction of square roots      ...    0.001 sec
Total time needed                          ...    0.002 sec

--------------
SCF ITERATIONS
--------------
ITER       Energy         Delta-E        Max-DP      RMS-DP      [F,P]     Damp
               ***  Starting incremental Fock matrix formation  ***
  0    -76.0588176532   0.000000000000 0.00262070  0.00021326  0.0171721 0.7000
                      *** Initiating the SOSCF procedure ***
                      *** Re-Reading the Fockian *** 
                      *** Removing any level shift *** 
ITER      Energy       Delta-E        Grad      Rot      Max-DP    RMS-DP
  1    -76.05896468  -0.0001470279  0.001898  0.001898  0.007892  0.000646
               *** Restarting incremental Fock matrix formation ***
  2    -76.05939774  -0.0004330604  0.002483  0.002156  0.001972  0.000212
  3    -76.05942887  -0.0000311318  0.000656  0.000885  0.001197  0.000121
  4    -76.05943270  -0.0000038251  0.000290  0.000191  0.000228  0.000017
  5    -76.05943314  -0.0000004401  0.000055  0.000048  0.000041  0.000004
  6    -76.05943316  -0.0000000197  0.000016  0.000035  0.000020  0.000002
                 **** Energy Check signals convergence ****
              ***Rediagonalizing the Fockian in SOSCF/NRSCF***

               *****************************************************
               *                     SUCCESS                       *
               *           SCF CONVERGED AFTER   7 CYCLES          *
               *****************************************************

Total Energy       :          -76.05943316 Eh           -2069.68240 eV
  Last Energy change         ...   -2.4718e-09  Tolerance :   1.0000e-08
  Last MAX-Density change    ...    3.1587e-06  Tolerance :   1.0000e-07
             **** THE GBW FILE WAS UPDATED (H2O_opt_HF.gbw) ****
             **** DENSITY FILE WAS UPDATED (H2O_opt_HF.scfp) ****
             **** ENERGY FILE WAS UPDATED (H2O_opt_HF.en.tmp) ****
             **** THE GBW FILE WAS UPDATED (H2O_opt_HF.gbw) ****
             **** DENSITY FILE WAS UPDATED (H2O_opt_HF.scfp) ****
Total SCF time: 0 days 0 hours 0 min 1 sec 

-------------------------   --------------------
FINAL SINGLE POINT ENERGY       -76.059433160698
-------------------------   --------------------

------------------------------------------------------------------------------
                         ORCA SCF GRADIENT CALCULATION
------------------------------------------------------------------------------

Gradient of the Hartree-Fock SCF energy:
Hartree-Fock type                ... RHF
Number of operators              ...    1
Number of atoms                  ...    3
Basis set dimensions             ...   43
Integral neglect threshold       ... 2.5e-11
Integral primitive cutoff        ... 2.5e-12

Nuclear repulsion gradient       ... done
One Electron Gradient            ... done
Pre-screening matrix             ... done
Starting the two electron gradient:
Two electron gradient done

------------------
CARTESIAN GRADIENT
------------------

   1   O   :   -0.000514469    0.000452215   -0.000144022
   2   H   :   -0.003787218   -0.004108317    0.001308423
   3   H   :    0.004301687    0.003656102   -0.001164400

Difference to translation invariance:
           :   -0.0000000000   -0.0000000000    0.0000000000

Norm of the cartesian gradient     ...    0.0081639823
RMS gradient                       ...    0.0027213274
MAX gradient                       ...    0.0043016872

-------
TIMINGS
-------

Total SCF gradient time            ...        0.192 sec

One electron gradient       ....       0.002 sec  (  1.0%)
Prescreening matrices       ....       0.016 sec  (  8.3%)
Two electron gradient       ....       0.066 sec  ( 34.4%)
------------------------------------------------------------------------------
                         ORCA GEOMETRY RELAXATION STEP
------------------------------------------------------------------------------

Reading the OPT-File                    .... done
Getting information on internals        .... done
Copying old internal coords+grads       .... done
Making the new internal coordinates     .... (new redundants).... done
Validating the new internal coordinates .... (new redundants).... done
Calculating the B-matrix                .... done
Calculating the G,G- and P matrices     .... done
Transforming gradient to internals      .... done
Projecting the internal gradient        .... done
Number of atoms                         ....   3
Number of internal coordinates          ....   3
Current Energy                          ....   -76.059433161 Eh
Current gradient norm                   ....     0.008163982 Eh/bohr
Maximum allowed component of the step   ....  0.300
Current trust radius                    ....  0.300
Updating the Hessian (BFGS)             .... done
Forming the augmented Hessian           .... done
Diagonalizing the augmented Hessian     .... done
Last element of RFO vector              ....  0.999337974
Lowest eigenvalues of augmented Hessian:
 -0.000297576  0.180878885  0.407009705
Length of the computed step             ....  0.036405615
The final length of the internal step   ....  0.036405615
Converting the step to cartesian space:
 Initial RMS(Int)=    0.0210187919
Transforming coordinates:
 Iter   0:  RMS(Cart)=    0.0128631830 RMS(Int)=    0.0210015785
 Iter   1:  RMS(Cart)=    0.0000965141 RMS(Int)=    0.0002349896
 Iter   2:  RMS(Cart)=    0.0000021092 RMS(Int)=    0.0000032795
 Iter   3:  RMS(Cart)=    0.0000000264 RMS(Int)=    0.0000000693
done
Storing new coordinates                 .... done

                                .--------------------.
          ----------------------|Geometry convergence|-------------------------
          Item                value                   Tolerance       Converged
          ---------------------------------------------------------------------
          Energy change      -0.0020402386            0.0000050000      NO
          RMS gradient        0.0052515986            0.0001000000      NO
          MAX gradient        0.0067368006            0.0003000000      NO
          RMS step            0.0210187919            0.0020000000      NO
          MAX step            0.0349614137            0.0040000000      NO
          ........................................................
          Max(Bonds)      0.0038      Max(Angles)    2.00
          Max(Dihed)        0.00      Max(Improp)    0.00
          ---------------------------------------------------------------------

The optimization has not yet converged - more geometry cycles are needed


    ---------------------------------------------------------------------------
                         Redundant Internal Coordinates
                            (Angstroem and degrees)

        Definition                    Value    dE/dq     Step     New-Value
    ----------------------------------------------------------------------------
     1. B(H   1,O   0)                0.9393 -0.004305  0.0038    0.9431   
     2. B(H   2,O   0)                0.9393 -0.004339  0.0038    0.9431   
     3. A(H   1,O   0,H   2)          104.39 -0.006737    2.00    106.40   
    ----------------------------------------------------------------------------

         *************************************************************
         *                GEOMETRY OPTIMIZATION CYCLE   4            *
         *************************************************************
---------------------------------
CARTESIAN COORDINATES (ANGSTROEM)
---------------------------------
  O     -3.923545   -0.072879    0.023211
  H     -2.990315    0.056926   -0.018130
  H     -4.056290   -0.962596    0.306569

----------------------------
CARTESIAN COORDINATES (A.U.)
----------------------------
  NO LB      ZA    FRAG     MASS         X           Y           Z
   0 O     8.0000    0    15.999   -7.414426   -0.137722    0.043862
   1 H     1.0000    0     1.008   -5.650876    0.107574   -0.034260
   2 H     1.0000    0     1.008   -7.665277   -1.819043    0.579331

--------------------------------
INTERNAL COORDINATES (ANGSTROEM)
--------------------------------
 O      0   0   0     0.000000000000     0.00000000     0.00000000
 H      1   0   0     0.943120975959     0.00000000     0.00000000
 H      1   2   0     0.943137808712   106.39628953     0.00000000

---------------------------
INTERNAL COORDINATES (A.U.)
---------------------------
 O      0   0   0     0.000000000000     0.00000000     0.00000000
 H      1   0   0     1.782240355720     0.00000000     0.00000000
 H      1   2   0     1.782272165012   106.39628953     0.00000000


Diagonalization of the overlap matrix:
Smallest eigenvalue                        ... 7.835e-03
Time for diagonalization                   ...    0.001 sec
Threshold for overlap eigenvalues          ... 1.000e-08
Number of eigenvalues below threshold      ... 0
Time for construction of square roots      ...    0.000 sec
Total time needed                          ...    0.001 sec

--------------
SCF ITERATIONS
--------------
ITER       Energy         Delta-E        Max-DP      RMS-DP      [F,P]     Damp
               ***  Starting incremental Fock matrix formation  ***
                      *** Initiating the SOSCF procedure ***
                      *** Re-Reading the Fockian *** 
                      *** Removing any level shift *** 
ITER      Energy       Delta-E        Grad      Rot      Max-DP    RMS-DP
  0    -76.05952742 -76.0595274166  0.002586  0.002586  0.001716  0.000184
               *** Restarting incremental Fock matrix formation ***
  1    -76.05957180  -0.0000443863  0.000800  0.000699  0.001001  0.000085
  2    -76.05957576  -0.0000039549  0.000340  0.000437  0.000373  0.000040
  3    -76.05957611  -0.0000003523  0.000086  0.000056  0.000063  0.000005
  4    -76.05957616  -0.0000000511  0.000008  0.000006  0.000004  0.000000
                 **** Energy Check signals convergence ****
              ***Rediagonalizing the Fockian in SOSCF/NRSCF***

               *****************************************************
               *                     SUCCESS                       *
               *           SCF CONVERGED AFTER   5 CYCLES          *
               *****************************************************

Total Energy       :          -76.05957616 Eh           -2069.68629 eV
  Last Energy change         ...   -4.7905e-10  Tolerance :   1.0000e-08
  Last MAX-Density change    ...    2.7008e-06  Tolerance :   1.0000e-07
             **** THE GBW FILE WAS UPDATED (H2O_opt_HF.gbw) ****
             **** DENSITY FILE WAS UPDATED (H2O_opt_HF.scfp) ****
             **** ENERGY FILE WAS UPDATED (H2O_opt_HF.en.tmp) ****
             **** THE GBW FILE WAS UPDATED (H2O_opt_HF.gbw) ****
             **** DENSITY FILE WAS UPDATED (H2O_opt_HF.scfp) ****
Total SCF time: 0 days 0 hours 0 min 1 sec 

-------------------------   --------------------
FINAL SINGLE POINT ENERGY       -76.059576161703
-------------------------   --------------------

------------------------------------------------------------------------------
                         ORCA SCF GRADIENT CALCULATION
------------------------------------------------------------------------------

Gradient of the Hartree-Fock SCF energy:
Hartree-Fock type                ... RHF
Number of operators              ...    1
Number of atoms                  ...    3
Basis set dimensions             ...   43
Integral neglect threshold       ... 2.5e-11
Integral primitive cutoff        ... 2.5e-12

Nuclear repulsion gradient       ... done
One Electron Gradient            ... done
Pre-screening matrix             ... done
Starting the two electron gradient:
Two electron gradient done

------------------
CARTESIAN GRADIENT
------------------

   1   O   :   -0.001143661    0.001106963   -0.000352547
   2   H   :    0.001195983    0.000051462   -0.000016390
   3   H   :   -0.000052322   -0.001158424    0.000368937

Difference to translation invariance:
           :    0.0000000000   -0.0000000000    0.0000000000

Norm of the cartesian gradient     ...    0.0023604460
RMS gradient                       ...    0.0007868153
MAX gradient                       ...    0.0011959828

-------
TIMINGS
-------

Total SCF gradient time            ...        0.207 sec

One electron gradient       ....       0.002 sec  (  1.0%)
Prescreening matrices       ....       0.017 sec  (  8.2%)
Two electron gradient       ....       0.064 sec  ( 30.9%)
------------------------------------------------------------------------------
                         ORCA GEOMETRY RELAXATION STEP
------------------------------------------------------------------------------

Reading the OPT-File                    .... done
Getting information on internals        .... done
Copying old internal coords+grads       .... done
Making the new internal coordinates     .... (new redundants).... done
Validating the new internal coordinates .... (new redundants).... done
Calculating the B-matrix                .... done
Calculating the G,G- and P matrices     .... done
Transforming gradient to internals      .... done
Projecting the internal gradient        .... done
Number of atoms                         ....   3
Number of internal coordinates          ....   3
Current Energy                          ....   -76.059576162 Eh
Current gradient norm                   ....     0.002360446 Eh/bohr
Maximum allowed component of the step   ....  0.300
Current trust radius                    ....  0.300
Updating the Hessian (BFGS)             .... done
Forming the augmented Hessian           .... done
Diagonalizing the augmented Hessian     .... done
Last element of RFO vector              ....  0.999992064
Lowest eigenvalues of augmented Hessian:
 -0.000005966  0.161614913  0.407011815
Length of the computed step             ....  0.003984041
The final length of the internal step   ....  0.003984041
Converting the step to cartesian space:
 Initial RMS(Int)=    0.0023001870
Transforming coordinates:
 Iter   0:  RMS(Cart)=    0.0008694189 RMS(Int)=    0.0023003979
 Iter   1:  RMS(Cart)=    0.0000012782 RMS(Int)=    0.0000020054
 Iter   2:  RMS(Cart)=    0.0000000017 RMS(Int)=    0.0000000029
done
Storing new coordinates                 .... done

                                .--------------------.
          ----------------------|Geometry convergence|-------------------------
          Item                value                   Tolerance       Converged
          ---------------------------------------------------------------------
          Energy change      -0.0001430010            0.0000050000      NO
          RMS gradient        0.0009884057            0.0001000000      NO
          MAX gradient        0.0012110162            0.0003000000      NO
          RMS step            0.0023001870            0.0020000000      NO
          MAX step            0.0023486645            0.0040000000      YES
          ........................................................
          Max(Bonds)      0.0012      Max(Angles)    0.13
          Max(Dihed)        0.00      Max(Improp)    0.00
          ---------------------------------------------------------------------

The optimization has not yet converged - more geometry cycles are needed


    ---------------------------------------------------------------------------
                         Redundant Internal Coordinates
                            (Angstroem and degrees)

        Definition                    Value    dE/dq     Step     New-Value
    ----------------------------------------------------------------------------
     1. B(H   1,O   0)                0.9431  0.001191 -0.0012    0.9419   
     2. B(H   2,O   0)                0.9431  0.001211 -0.0012    0.9419   
     3. A(H   1,O   0,H   2)          106.40 -0.000213    0.13    106.53   
    ----------------------------------------------------------------------------

         *************************************************************
         *                GEOMETRY OPTIMIZATION CYCLE   5            *
         *************************************************************
---------------------------------
CARTESIAN COORDINATES (ANGSTROEM)
---------------------------------
  O     -3.922792   -0.073606    0.023442
  H     -2.990902    0.057083   -0.018180
  H     -4.056456   -0.962027    0.306388

----------------------------
CARTESIAN COORDINATES (A.U.)
----------------------------
  NO LB      ZA    FRAG     MASS         X           Y           Z
   0 O     8.0000    0    15.999   -7.413003   -0.139095    0.044299
   1 H     1.0000    0     1.008   -5.651986    0.107871   -0.034355
   2 H     1.0000    0     1.008   -7.665590   -1.817967    0.578989

--------------------------------
INTERNAL COORDINATES (ANGSTROEM)
--------------------------------
 O      0   0   0     0.000000000000     0.00000000     0.00000000
 H      1   0   0     0.941929227241     0.00000000     0.00000000
 H      1   2   0     0.941921334243   106.53085809     0.00000000

---------------------------
INTERNAL COORDINATES (A.U.)
---------------------------
 O      0   0   0     0.000000000000     0.00000000     0.00000000
 H      1   0   0     1.779988277021     0.00000000     0.00000000
 H      1   2   0     1.779973361417   106.53085809     0.00000000


Diagonalization of the overlap matrix:
Smallest eigenvalue                        ... 7.797e-03
Time for diagonalization                   ...    0.001 sec
Threshold for overlap eigenvalues          ... 1.000e-08
Number of eigenvalues below threshold      ... 0
Time for construction of square roots      ...    0.001 sec
Total time needed                          ...    0.002 sec

--------------
SCF ITERATIONS
--------------
ITER       Energy         Delta-E        Max-DP      RMS-DP      [F,P]     Damp
               ***  Starting incremental Fock matrix formation  ***
                      *** Initiating the SOSCF procedure ***
                      *** Re-Reading the Fockian *** 
                      *** Removing any level shift *** 
ITER      Energy       Delta-E        Grad      Rot      Max-DP    RMS-DP
  0    -76.05957748 -76.0595774778  0.000558  0.000558  0.000269  0.000024
               *** Restarting incremental Fock matrix formation ***
  1    -76.05957861  -0.0000011277  0.000134  0.000099  0.000138  0.000010
  2    -76.05957875  -0.0000001433  0.000065  0.000091  0.000056  0.000006
  3    -76.05957878  -0.0000000305  0.000013  0.000010  0.000015  0.000001
  4    -76.05957878  -0.0000000012  0.000003  0.000006  0.000006  0.000000
                 **** Energy Check signals convergence ****
              ***Rediagonalizing the Fockian in SOSCF/NRSCF***

               *****************************************************
               *                     SUCCESS                       *
               *           SCF CONVERGED AFTER   5 CYCLES          *
               *****************************************************

Total Energy       :          -76.05957878 Eh           -2069.68636 eV
  Last Energy change         ...   -1.2238e-10  Tolerance :   1.0000e-08
  Last MAX-Density change    ...    7.5936e-07  Tolerance :   1.0000e-07
             **** THE GBW FILE WAS UPDATED (H2O_opt_HF.gbw) ****
             **** DENSITY FILE WAS UPDATED (H2O_opt_HF.scfp) ****
             **** ENERGY FILE WAS UPDATED (H2O_opt_HF.en.tmp) ****
             **** THE GBW FILE WAS UPDATED (H2O_opt_HF.gbw) ****
             **** DENSITY FILE WAS UPDATED (H2O_opt_HF.scfp) ****
Total SCF time: 0 days 0 hours 0 min 0 sec 

-------------------------   --------------------
FINAL SINGLE POINT ENERGY       -76.059578780485
-------------------------   --------------------

------------------------------------------------------------------------------
                         ORCA SCF GRADIENT CALCULATION
------------------------------------------------------------------------------

Gradient of the Hartree-Fock SCF energy:
Hartree-Fock type                ... RHF
Number of operators              ...    1
Number of atoms                  ...    3
Basis set dimensions             ...   43
Integral neglect threshold       ... 2.5e-11
Integral primitive cutoff        ... 2.5e-12

Nuclear repulsion gradient       ... done
One Electron Gradient            ... done
Pre-screening matrix             ... done
Starting the two electron gradient:
Two electron gradient done

------------------
CARTESIAN GRADIENT
------------------

   1   O   :    0.000143128   -0.000145942    0.000046480
   2   H   :   -0.000131735    0.000011648   -0.000003710
   3   H   :   -0.000011393    0.000134294   -0.000042770

Difference to translation invariance:
           :   -0.0000000000    0.0000000000   -0.0000000000

Norm of the cartesian gradient     ...    0.0002853817
RMS gradient                       ...    0.0000951272
MAX gradient                       ...    0.0001459424

-------
TIMINGS
-------

Total SCF gradient time            ...        0.201 sec

One electron gradient       ....       0.002 sec  (  1.0%)
Prescreening matrices       ....       0.015 sec  (  7.5%)
Two electron gradient       ....       0.064 sec  ( 31.8%)
------------------------------------------------------------------------------
                         ORCA GEOMETRY RELAXATION STEP
------------------------------------------------------------------------------

Reading the OPT-File                    .... done
Getting information on internals        .... done
Copying old internal coords+grads       .... done
Making the new internal coordinates     .... (new redundants).... done
Validating the new internal coordinates .... (new redundants).... done
Calculating the B-matrix                .... done
Calculating the G,G- and P matrices     .... done
Transforming gradient to internals      .... done
Projecting the internal gradient        .... done
Number of atoms                         ....   3
Number of internal coordinates          ....   3
Current Energy                          ....   -76.059578780 Eh
Current gradient norm                   ....     0.000285382 Eh/bohr
Maximum allowed component of the step   ....  0.300
Current trust radius                    ....  0.300
Updating the Hessian (BFGS)             .... done
Forming the augmented Hessian           .... done
Diagonalizing the augmented Hessian     .... done
Last element of RFO vector              ....  0.999999863
Lowest eigenvalues of augmented Hessian:
 -0.000000085  0.168876817  0.407021387
Length of the computed step             ....  0.000524070
The final length of the internal step   ....  0.000524070
Converting the step to cartesian space:
 Initial RMS(Int)=    0.0003025720
Transforming coordinates:
 Iter   0:  RMS(Cart)=    0.0001175455 RMS(Int)=    0.0003025670
 Iter   1:  RMS(Cart)=    0.0000000275 RMS(Int)=    0.0000000428
done
Storing new coordinates                 .... done

                                .--------------------.
          ----------------------|Geometry convergence|-------------------------
          Item                value                   Tolerance       Converged
          ---------------------------------------------------------------------
          Energy change      -0.0000026188            0.0000050000      YES
          RMS gradient        0.0001134909            0.0001000000      NO
          MAX gradient        0.0001378975            0.0003000000      YES
          RMS step            0.0003025720            0.0020000000      YES
          MAX step            0.0004043863            0.0040000000      YES
          ........................................................
          Max(Bonds)      0.0001      Max(Angles)    0.02
          Max(Dihed)        0.00      Max(Improp)    0.00
          ---------------------------------------------------------------------

       The step convergence is overachieved with 
       reasonable convergence on the gradient
       Convergence will therefore be signaled now


                    ***********************HURRAY********************
                    ***        THE OPTIMIZATION HAS CONVERGED     ***
                    *************************************************


    ---------------------------------------------------------------------------
                         Redundant Internal Coordinates

                          --- Optimized Parameters ---  
                            (Angstroem and degrees)

        Definition                    OldVal   dE/dq     Step     FinalVal
    ----------------------------------------------------------------------------
     1. B(H   1,O   0)                0.9419 -0.000129  0.0001    0.9420   
     2. B(H   2,O   0)                0.9419 -0.000138  0.0001    0.9421   
     3. A(H   1,O   0,H   2)          106.53  0.000056   -0.02    106.51   
    ----------------------------------------------------------------------------
                 *******************************************************
                 *** FINAL ENERGY EVALUATION AT THE STATIONARY POINT ***
                 ***               (AFTER    5 CYCLES)               ***
                 *******************************************************
---------------------------------
CARTESIAN COORDINATES (ANGSTROEM)
---------------------------------
  O     -3.922897   -0.073502    0.023409
  H     -2.990861    0.057022   -0.018160
  H     -4.056392   -0.962071    0.306402

----------------------------
CARTESIAN COORDINATES (A.U.)
----------------------------
  NO LB      ZA    FRAG     MASS         X           Y           Z
   0 O     8.0000    0    15.999   -7.413200   -0.138898    0.044236
   1 H     1.0000    0     1.008   -5.651908    0.107756   -0.034318
   2 H     1.0000    0     1.008   -7.665471   -1.818050    0.579015

--------------------------------
INTERNAL COORDINATES (ANGSTROEM)
--------------------------------
 O      0   0   0     0.000000000000     0.00000000     0.00000000
 H      1   0   0     0.942048455848     0.00000000     0.00000000
 H      1   2   0     0.942051340505   106.50768846     0.00000000

---------------------------
INTERNAL COORDINATES (A.U.)
---------------------------
 O      0   0   0     0.000000000000     0.00000000     0.00000000
 H      1   0   0     1.780213586436     0.00000000     0.00000000
 H      1   2   0     1.780219037647   106.50768846     0.00000000

---------------------
BASIS SET INFORMATION
---------------------
There are 2 groups of distinct atoms

 Group   1 Type O   : 11s6p2d1f contracted to 5s3p2d1f pattern {62111/411/11/1}
 Group   2 Type H   : 5s1p contracted to 3s1p pattern {311/1}

Atom   0O    basis set group =>   1
Atom   1H    basis set group =>   2
Atom   2H    basis set group =>   2
------------------------------------------------------------------------------
                           ORCA GTO INTEGRAL CALCULATION
------------------------------------------------------------------------------

                         BASIS SET STATISTICS AND STARTUP INFO

 # of primitive gaussian shells          ...   32
 # of primitive gaussian functions       ...   62
 # of contracted shells                  ...   19
 # of contracted basis functions         ...   43
 Highest angular momentum                ...    3
 Maximum contraction depth               ...    6
 Integral package used                   ... LIBINT
 Integral threshhold            Thresh   ...  2.500e-11
 Primitive cut-off              TCut     ...  2.500e-12


------------------------------ INTEGRAL EVALUATION ----------------------------


 * One electron integrals 
 Pre-screening matrix                    ... done
 Shell pair data                         ... done (   0.001 sec)

Timings:
 Total evaluation time               ...     0.001 sec (   0.000 min)
 One electron matrix time            ...     0.004 sec (   0.000 min) =400.0%
 Schwartz matrix evaluation time     ...     0.075 sec (   0.001 min) =7500.0%

-------------------------------------------------------------------------------
                                 ORCA SCF
-------------------------------------------------------------------------------

------------
SCF SETTINGS
------------
Hamiltonian:
 Ab initio Hamiltonian  Method          .... Hartree-Fock(GTOs)


General Settings:
 Integral files         IntName         .... H2O_opt_HF
 Hartree-Fock type      HFTyp           .... RHF
 Total Charge           Charge          ....    0
 Multiplicity           Mult            ....    1
 Number of Electrons    NEL             ....   10
 Basis Dimension        Dim             ....   43
 Nuclear Repulsion      ENuc            ....      9.3381858247 Eh

Convergence Acceleration:
 DIIS                   CNVDIIS         .... on
   Start iteration      DIISMaxIt       ....    12
   Startup error        DIISStart       ....  0.200000
   # of expansion vecs  DIISMaxEq       ....     5
   Bias factor          DIISBfac        ....   1.050
   Max. coefficient     DIISMaxC        ....  10.000
 Newton-Raphson         CNVNR           .... off
 SOSCF                  CNVSOSCF        .... on
   Start iteration      SOSCFMaxIt      ....   150
   Startup grad/error   SOSCFStart      ....  0.003300
 Level Shifting         CNVShift        .... on
   Level shift para.    LevelShift      ....    0.2500
   Turn off err/grad.   ShiftErr        ....    0.0010
 Zerner damping         CNVZerner       .... off
 Static damping         CNVDamp         .... on
   Fraction old density DampFac         ....    0.7000
   Max. Damping (<1)    DampMax         ....    0.9800
   Min. Damping (>=0)   DampMin         ....    0.0000
   Turn off err/grad.   DampErr         ....    0.1000
 Fernandez-Rico         CNVRico         .... off

SCF Procedure:
 Maximum # iterations   MaxIter         ....   125
 SCF integral mode      SCFMode         .... Direct
   Integral package                     .... LIBINT
 Reset frequency        DirectResetFreq ....    20
 Integral Threshold     Thresh          ....  2.500e-11 Eh
 Primitive CutOff       TCut            ....  2.500e-12 Eh

Convergence Tolerance:
 Convergence Check Mode ConvCheckMode   .... Total+1el-Energy
 Convergence forced     ConvForced      .... 0
 Energy Change          TolE            ....  1.000e-08 Eh
 1-El. energy change                    ....  1.000e-05 Eh
 Orbital Gradient       TolG            ....  1.000e-05
 Orbital Rotation angle TolX            ....  1.000e-05
 DIIS Error             TolErr          ....  5.000e-07


Diagonalization of the overlap matrix:
Smallest eigenvalue                        ... 7.801e-03
Time for diagonalization                   ...    0.001 sec
Threshold for overlap eigenvalues          ... 1.000e-08
Number of eigenvalues below threshold      ... 0
Time for construction of square roots      ...    0.001 sec
Total time needed                          ...    0.002 sec

---------------------
INITIAL GUESS: MOREAD
---------------------
Guess MOs are being read from file: H2O_opt_HF.gbw
Input Geometry matches current geometry (good)
Input basis set matches current basis set (good)
MOs were renormalized
MOs were reorthogonalized (Cholesky)
                      ------------------
                      INITIAL GUESS DONE (   0.0 sec)
                      ------------------
--------------
SCF ITERATIONS
--------------
ITER       Energy         Delta-E        Max-DP      RMS-DP      [F,P]     Damp
               ***  Starting incremental Fock matrix formation  ***
                      *** Initiating the SOSCF procedure ***
                      *** Re-Reading the Fockian *** 
                      *** Removing any level shift *** 
ITER      Energy       Delta-E        Grad      Rot      Max-DP    RMS-DP
  0    -76.05957880 -76.0595788043  0.000065  0.000065  0.000029  0.000003
               *** Restarting incremental Fock matrix formation ***
  1    -76.05957882  -0.0000000161  0.000016  0.000014  0.000015  0.000001
  2    -76.05957882  -0.0000000022  0.000007  0.000011  0.000007  0.000001
                  ***Gradient check signals convergence***
              ***Rediagonalizing the Fockian in SOSCF/NRSCF***

               *****************************************************
               *                     SUCCESS                       *
               *           SCF CONVERGED AFTER   3 CYCLES          *
               *****************************************************


----------------
TOTAL SCF ENERGY
----------------

Total Energy       :          -76.05957882 Eh           -2069.68636 eV

Components:
Nuclear Repulsion  :            9.33818582 Eh             254.10495 eV
Electronic Energy  :          -85.39776465 Eh           -2323.79132 eV
One Electron Energy:         -123.33886808 Eh           -3356.22123 eV
Two Electron Energy:           37.94110343 Eh            1032.42991 eV

Virial components:
Potential Energy   :         -152.12224291 Eh           -4139.45668 eV
Kinetic Energy     :           76.06266408 Eh            2069.77031 eV
Virial Ratio       :            1.99995944


---------------
SCF CONVERGENCE
---------------

  Last Energy change         ...   -4.0691e-10  Tolerance :   1.0000e-08
  Last MAX-Density change    ...    1.7127e-06  Tolerance :   1.0000e-07
  Last RMS-Density change    ...    1.2168e-07  Tolerance :   5.0000e-09
  Last Orbital Gradient      ...    1.8187e-06  Tolerance :   1.0000e-05
  Last Orbital Rotation      ...    1.2275e-06  Tolerance :   1.0000e-05

             **** THE GBW FILE WAS UPDATED (H2O_opt_HF.gbw) ****
             **** DENSITY FILE WAS UPDATED (H2O_opt_HF.scfp) ****
             **** ENERGY FILE WAS UPDATED (H2O_opt_HF.en.tmp) ****
             **** THE GBW FILE WAS UPDATED (H2O_opt_HF.gbw) ****
             **** DENSITY FILE WAS UPDATED (H2O_opt_HF.scfp) ****
----------------
ORBITAL ENERGIES
----------------

  NO   OCC          E(Eh)            E(eV) 
   0   2.0000     -20.555958      -559.3561 
   1   2.0000      -1.356287       -36.9064 
   2   2.0000      -0.727127       -19.7861 
   3   2.0000      -0.580233       -15.7889 
   4   2.0000      -0.508734       -13.8434 
   5   0.0000       0.129547         3.5252 
   6   0.0000       0.198375         5.3980 
   7   0.0000       0.531003        14.4493 
   8   0.0000       0.564558        15.3624 
   9   0.0000       0.597070        16.2471 
  10   0.0000       0.645055        17.5528 
  11   0.0000       0.769510        20.9394 
  12   0.0000       0.779980        21.2243 
  13   0.0000       1.429583        38.9009 
  14   0.0000       1.441117        39.2148 
  15   0.0000       1.561204        42.4825 
  16   0.0000       1.755959        47.7821 
  17   0.0000       1.882714        51.2313 
  18   0.0000       2.037088        55.4320 
  19   0.0000       2.256427        61.4005 
  20   0.0000       2.354161        64.0600 
  21   0.0000       2.417233        65.7762 
  22   0.0000       2.565085        69.7995 
  23   0.0000       2.725581        74.1668 
  24   0.0000       3.018373        82.1341 
  25   0.0000       3.030169        82.4551 
  26   0.0000       3.030397        82.4613 
  27   0.0000       3.159515        85.9748 
  28   0.0000       4.015739       109.2738 
  29   0.0000       4.371277       118.9485 
  30   0.0000       5.546185       150.9194 
  31   0.0000       5.647516       153.6767 
  32   0.0000       5.852368       159.2510 
  33   0.0000       5.872024       159.7859 
  34   0.0000       5.959441       162.1646 
  35   0.0000       6.605311       179.7397 
  36   0.0000       6.779989       184.4929 
  37   0.0000       6.824439       185.7024 
  38   0.0000       6.896972       187.6761 
  39   0.0000       6.931468       188.6148 
  40   0.0000       7.478652       203.5045 
  41   0.0000       7.480623       203.5581 
  42   0.0000      44.801997      1219.1243 

                    ********************************
                    * MULLIKEN POPULATION ANALYSIS *
                    ********************************

-----------------------
MULLIKEN ATOMIC CHARGES
-----------------------
   0 O :   -0.686538
   1 H :    0.343269
   2 H :    0.343269
Sum of atomic charges:   -0.0000000

--------------------------------
MULLIKEN REDUCED ORBITAL CHARGES
--------------------------------
  0 O s       :     3.796355  s :     3.796355
      pz      :     1.916752  p :     4.862774
      px      :     1.449909
      py      :     1.496112
      dz2     :     0.004333  d :     0.025694
      dxz     :     0.001095
      dyz     :     0.003587
      dx2y2   :     0.016307
      dxy     :     0.000373
      f0      :     0.000271  f :     0.001715
      f+1     :     0.000409
      f-1     :     0.000215
      f+2     :     0.000207
      f-2     :     0.000053
      f+3     :     0.000324
      f-3     :     0.000235
  1 H s       :     0.608626  s :     0.608626
      pz      :     0.016122  p :     0.048106
      px      :     0.020346
      py      :     0.011637
  2 H s       :     0.608626  s :     0.608626
      pz      :     0.016971  p :     0.048105
      px      :     0.011122
      py      :     0.020012


                     *******************************
                     * LOEWDIN POPULATION ANALYSIS *
                     *******************************

----------------------
LOEWDIN ATOMIC CHARGES
----------------------
   0 O :   -0.293877
   1 H :    0.146938
   2 H :    0.146940

-------------------------------
LOEWDIN REDUCED ORBITAL CHARGES
-------------------------------
  0 O s       :     3.433402  s :     3.433402
      pz      :     1.858103  p :     4.823626
      px      :     1.463314
      py      :     1.502209
      dz2     :     0.005241  d :     0.034342
      dxz     :     0.000349
      dyz     :     0.004145
      dx2y2   :     0.024308
      dxy     :     0.000299
      f0      :     0.000227  f :     0.002507
      f+1     :     0.000523
      f-1     :     0.000167
      f+2     :     0.000336
      f-2     :     0.000035
      f+3     :     0.000689
      f-3     :     0.000530
  1 H s       :     0.682306  s :     0.682306
      pz      :     0.048843  p :     0.170757
      px      :     0.087832
      py      :     0.034082
  2 H s       :     0.682305  s :     0.682305
      pz      :     0.053947  p :     0.170755
      px      :     0.032403
      py      :     0.084406


                      *****************************
                      * MAYER POPULATION ANALYSIS *
                      *****************************

  NA   - Mulliken gross atomic population
  ZA   - Total nuclear charge
  QA   - Mulliken gross atomic charge
  VA   - Mayer's total valence
  BVA  - Mayer's bonded valence
  FA   - Mayer's free valence

  ATOM       NA         ZA         QA         VA         BVA        FA
  0 O      8.6865     8.0000    -0.6865     1.7873     1.7873     0.0000
  1 H      0.6567     1.0000     0.3433     0.8989     0.8989    -0.0000
  2 H      0.6567     1.0000     0.3433     0.8989     0.8989    -0.0000

  Mayer bond orders larger than 0.100000
B(  0-O ,  1-H ) :   0.8937 B(  0-O ,  2-H ) :   0.8937 

-------
TIMINGS
-------

Total SCF time: 0 days 0 hours 0 min 0 sec 

Total time                  ....       0.691 sec
Sum of individual times     ....       0.516 sec  ( 74.7%)

Fock matrix formation       ....       0.511 sec  ( 74.0%)
Diagonalization             ....       0.001 sec  (  0.1%)
Density matrix formation    ....       0.000 sec  (  0.0%)
Population analysis         ....       0.002 sec  (  0.3%)
Initial guess               ....       0.001 sec  (  0.1%)
Orbital Transformation      ....       0.000 sec  (  0.0%)
Orbital Orthonormalization  ....       0.000 sec  (  0.0%)
DIIS solution               ....       0.000 sec  (  0.0%)
SOSCF solution              ....       0.001 sec  (  0.1%)

-------------------------   --------------------
FINAL SINGLE POINT ENERGY       -76.059578822955
-------------------------   --------------------

                                *** OPTIMIZATION RUN DONE ***

                            ***************************************
                            *     ORCA property calculations      *
                            ***************************************

                                    ---------------------
                                    Active property flags
                                    ---------------------
   (+) Dipole Moment


------------------------------------------------------------------------------
                       ORCA ELECTRIC PROPERTIES CALCULATION
------------------------------------------------------------------------------

Dipole Moment Calculation                       ... on
Quadrupole Moment Calculation                   ... off
Polarizability Calculation                      ... off
GBWName                                         ... H2O_opt_HF.gbw
Electron density file                           ... H2O_opt_HF.scfp
The origin for moment calculation is the CENTER OF MASS  = (-7.328766, -0.219051  0.069764)

-------------
DIPOLE MOMENT
-------------
                                X             Y             Z
Electronic contribution:     -0.07631       0.07244      -0.02307
Nuclear contribution   :      0.66467      -0.63097       0.20095
                        -----------------------------------------
Total Dipole Moment    :      0.58836      -0.55853       0.17788
                        -----------------------------------------
Magnitude (a.u.)       :      0.83052
Magnitude (Debye)      :      2.11102



--------------------
Rotational spectrum 
--------------------
 
Rotational constants in cm-1:    29.641783    14.674889     9.815491 
Rotational constants in MHz : 888638.284578 439942.105799 294261.002979 

 Dipole components along the rotational axes: 
x,y,z [a.u.] :    -0.000005     0.830521     0.000000 
x,y,z [Debye]:    -0.000012     2.111016     0.000000 

 

-------------------------------------------------------------------------------
                               ORCA SCF HESSIAN
-------------------------------------------------------------------------------

Hessian of the Hartree-Fock SCF energy:
Hartree-Fock type                                ... RHF
Number of operators                              ...    1
Number of atoms                                  ...    3
Basis set dimensions                             ...   43
Integral neglect threshold                       ... 2.5e-11
Integral primitive cutoff                        ... 2.5e-12

Nuclear repulsion Hessian                        ... done   (      0.0 sec)

----------------------------------------------
Forming right-hand sides of CP-SCF equations     ...
----------------------------------------------
One electron integral derivatives                ... done   (      0.1 sec)
Transforming the overlap derivative matrices     ... done   (      0.0 sec)
Making the Q(x) pseudodensities                  ... done   (      0.0 sec)
Adding the E*S(x)*S(y) terms to the Hessian      ... done   (      0.0 sec)
Calculating energy weighted overlap derivatives  ... done   (      0.0 sec)
Two electron integral derivatives                ... done   (      0.2 sec)
tr(F(y)Q(x)) contribution to the Hessian         ... done   (      0.0 sec)
Response fock operator R(S(x))                   ... done   (      0.2 sec)
tr(F(y)S(x)) contribution to the Hessian         ... done   (      0.0 sec)
Transforming and finalizing RHSs                 ... done   (      0.0 sec)

----------------------------------------------
Solving the CP-SCF equations                     ...
----------------------------------------------
     CP-SCF ITERATION   0: 
     CP-SCF ITERATION   1:      0.000598350100
     CP-SCF ITERATION   2:      0.000034103974
     CP-SCF ITERATION   3:      0.000002006949
     CP-SCF ITERATION   4:      0.000000054590
     CP-SCF ITERATION   5:      0.000000003091

                                                 ... done   (      1.0 sec)
Forming perturbed density Hessian contributions  ... done   (      0.0 sec)
Making the perturbed densities                   ... done   (      0.0 sec)
2nd integral derivative contribs                 ... done   (      0.7 sec)
Dipol derivatives                                ... done   (      0.1 sec)

Total SCF Hessian time: 0 days 0 hours 0 min 2 sec 

Writing the Hessian file to the disk             ... done


Maximum memory used throughout the entire calculation: 150.9 MB

-----------------------
VIBRATIONAL FREQUENCIES
-----------------------

Scaling factor for frequencies =  1.000000000  (already applied!)

   0:         0.00 cm**-1
   1:         0.00 cm**-1
   2:         0.00 cm**-1
   3:         0.00 cm**-1
   4:         0.00 cm**-1
   5:         0.00 cm**-1
   6:      1734.48 cm**-1
   7:      4110.02 cm**-1
   8:      4211.96 cm**-1


------------
NORMAL MODES
------------

These modes are the Cartesian displacements weighted by the diagonal matrix
M(i,i)=1/sqrt(m[i]) where m[i] is the mass of the displaced atom
Thus, these vectors are normalized but *not* orthogonal

                  0          1          2          3          4          5    
      0       0.000000   0.000000   0.000000   0.000000   0.000000   0.000000
      1       0.000000   0.000000   0.000000   0.000000   0.000000   0.000000
      2       0.000000   0.000000   0.000000   0.000000   0.000000   0.000000
      3       0.000000   0.000000   0.000000   0.000000   0.000000   0.000000
      4       0.000000   0.000000   0.000000   0.000000   0.000000   0.000000
      5       0.000000   0.000000   0.000000   0.000000   0.000000   0.000000
      6       0.000000   0.000000   0.000000   0.000000   0.000000   0.000000
      7       0.000000   0.000000   0.000000   0.000000   0.000000   0.000000
      8       0.000000   0.000000   0.000000   0.000000   0.000000   0.000000
                   6          7          8    
      0      -0.050330  -0.034989  -0.050272
      1       0.047776   0.033242  -0.048062
      2      -0.015216  -0.010587   0.015307
      3       0.100309   0.692155   0.698019
      4      -0.665229   0.132769   0.097771
      5       0.211863  -0.042284  -0.031138
      6       0.698523  -0.136806   0.099899
      7      -0.093073  -0.660389   0.665074
      8       0.029642   0.210321  -0.211814


-----------
IR SPECTRUM
-----------

 Mode    freq (cm**-1)   T**2         TX         TY         TZ
-------------------------------------------------------------------
   6:      1734.48  101.878288  (  7.149238  -6.789133   2.162026)
   7:      4110.02   17.026232  (  2.921471  -2.776673   0.883927)
   8:      4211.96   76.561363  (  6.176842   5.905293  -1.880293)

The first frequency considered to be a vibration is 6
The total number of vibrations considered is 3


--------------------------
THERMOCHEMISTRY AT 298.15K
--------------------------

Temperature         ... 298.15 K
Pressure            ... 1.00 atm
Total Mass          ... 18.02 AMU

Throughout the following assumptions are being made:
  (1) The electronic state is orbitally nondegenerate
  (2) There are no thermally accessible electronically excited states
  (3) Hindered rotations indicated by low frequency modes are not
      treated as such but are treated as vibrations and this may
      cause some error
  (4) All equations used are the standard statistical mechanics
      equations for an ideal gas
  (5) All vibrations are strictly harmonic

freq.    1734.48  E(vib)   ...       0.00 
freq.    4110.02  E(vib)   ...       0.00 
freq.    4211.96  E(vib)   ...       0.00 

------------
INNER ENERGY
------------

The inner energy is: U= E(el) + E(ZPE) + E(vib) + E(rot) + E(trans)
    E(el)   - is the total energy from the electronic structure calculation
              = E(kin-el) + E(nuc-el) + E(el-el) + E(nuc-nuc)
    E(ZPE)  - the the zero temperature vibrational energy from the frequency calculation
    E(vib)  - the the finite temperature correction to E(ZPE) due to population
              of excited vibrational states
    E(rot)  - is the rotational thermal energy
    E(trans)- is the translational thermal energy

Summary of contributions to the inner energy U:
Electronic energy                ...    -76.05957882 Eh
Zero point energy                ...      0.02291031 Eh      14.38 kcal/mol
Thermal vibrational correction   ...      0.00000183 Eh       0.00 kcal/mol
Thermal rotational correction    ...      0.00141627 Eh       0.89 kcal/mol
Thermal translational correction ...      0.00141627 Eh       0.89 kcal/mol
-----------------------------------------------------------------------
Total thermal energy                    -76.03383414 Eh


Summary of corrections to the electronic energy:
(perhaps to be used in another calculation)
Total thermal correction                  0.00283437 Eh       1.78 kcal/mol
Non-thermal (ZPE) correction              0.02291031 Eh      14.38 kcal/mol
-----------------------------------------------------------------------
Total correction                          0.02574468 Eh      16.15 kcal/mol


--------
ENTHALPY
--------

The enthalpy is H = U + kB*T
                kB is Boltzmann's constant
Total free energy                 ...    -76.03383414 Eh 
Thermal Enthalpy correction       ...      0.00094421 Eh       0.59 kcal/mol
-----------------------------------------------------------------------
Total Enthalpy                    ...    -76.03288993 Eh


Note: Rotational entropy computed according to Herzberg 
Infrared and Raman Spectra, Chapter V,1, Van Nostrand Reinhold, 1945 
Point Group:  Cs, Symmetry Number:   1  
Rotational constants in cm-1:    29.641783    14.674889     9.815491 

Vibrational entropy computed according to the QRRHO of S. Grimme
Chem.Eur.J. 2012 18 9955


-------
ENTROPY
-------

The entropy contributions are T*S = T*(S(el)+S(vib)+S(rot)+S(trans))
     S(el)   - electronic entropy
     S(vib)  - vibrational entropy
     S(rot)  - rotational entropy
     S(trans)- translational entropy
The entropies will be listed as mutliplied by the temperature to get
units of energy

Electronic entropy                ...      0.00000000 Eh      0.00 kcal/mol
Vibrational entropy               ...      0.00000205 Eh      0.00 kcal/mol
Rotational entropy                ...      0.00556447 Eh      3.49 kcal/mol
Translational entropy             ...      0.01644380 Eh     10.32 kcal/mol
-----------------------------------------------------------------------
Final entropy term                ...      0.02201032 Eh     13.81 kcal/mol

In case the symmetry of your molecule has not been determined correctly
or in case you have a reason to use a different symmetry number we print 
out the resulting rotational entropy values for sn=1,12 :
 --------------------------------------------------------
|  sn= 1 | S(rot)=       0.00556447 Eh      3.49 kcal/mol|
|  sn= 2 | S(rot)=       0.00491002 Eh      3.08 kcal/mol|
|  sn= 3 | S(rot)=       0.00452718 Eh      2.84 kcal/mol|
|  sn= 4 | S(rot)=       0.00425556 Eh      2.67 kcal/mol|
|  sn= 5 | S(rot)=       0.00404487 Eh      2.54 kcal/mol|
|  sn= 6 | S(rot)=       0.00387273 Eh      2.43 kcal/mol|
|  sn= 7 | S(rot)=       0.00372718 Eh      2.34 kcal/mol|
|  sn= 8 | S(rot)=       0.00360110 Eh      2.26 kcal/mol|
|  sn= 9 | S(rot)=       0.00348989 Eh      2.19 kcal/mol|
|  sn=10 | S(rot)=       0.00339041 Eh      2.13 kcal/mol|
|  sn=11 | S(rot)=       0.00330042 Eh      2.07 kcal/mol|
|  sn=12 | S(rot)=       0.00321827 Eh      2.02 kcal/mol|
 --------------------------------------------------------


-------------------
GIBBS FREE ENERGY
-------------------

The Gibbs free energy is G = H - T*S

Total enthalpy                    ...    -76.03288993 Eh 
Total entropy correction          ...     -0.02201032 Eh    -13.81 kcal/mol
-----------------------------------------------------------------------
Final Gibbs free energy         ...    -76.05490026 Eh

For completeness - the Gibbs free energy minus the electronic energy
G-E(el)                           ...      0.00467857 Eh      2.94 kcal/mol


Timings for individual modules:

Sum of individual times         ...       37.729 sec (=   0.629 min)
GTO integral calculation        ...        7.920 sec (=   0.132 min)  21.0 %
SCF iterations                  ...       16.297 sec (=   0.272 min)  43.2 %
SCF Gradient evaluation         ...        7.152 sec (=   0.119 min)  19.0 %
Geometry relaxation             ...        2.420 sec (=   0.040 min)   6.4 %
Analytical frequency calculation...        3.940 sec (=   0.066 min)  10.4 %
                             ****ORCA TERMINATED NORMALLY****
TOTAL RUN TIME: 0 days 0 hours 0 minutes 38 seconds 574 msec
