3
* (null), Energy   -1000.0000000
O    -3.922897   -0.073502    0.023409   -0.100659    0.095552   -0.030432
H    -2.990861    0.057022   -0.018160    0.200618   -1.330459    0.423726
H    -4.056392   -0.962071    0.306402    1.397045   -0.186145    0.059284
3
* Frequency(6) 1734.4837
O    -3.934336   -0.062643    0.019951   -0.100659    0.095552   -0.030432
H    -2.968062   -0.094178    0.029994    0.200618   -1.330459    0.423726
H    -3.897625   -0.983225    0.313139    1.397045   -0.186145    0.059284
3
* Frequency(6) 1734.4837
O    -3.944536   -0.052960    0.016867   -0.100659    0.095552   -0.030432
H    -2.947733   -0.228992    0.072930    0.200618   -1.330459    0.423726
H    -3.756063   -1.002087    0.319146    1.397045   -0.186145    0.059284
3
* Frequency(6) 1734.4837
O    -3.952391   -0.045504    0.014492   -0.100659    0.095552   -0.030432
H    -2.932078   -0.332813    0.105995    0.200618   -1.330459    0.423726
H    -3.647047   -1.016613    0.323772    1.397045   -0.186145    0.059284
3
* Frequency(6) 1734.4837
O    -3.957049   -0.041082    0.013084   -0.100659    0.095552   -0.030432
H    -2.922793   -0.394389    0.125606    0.200618   -1.330459    0.423726
H    -3.582389   -1.025228    0.326516    1.397045   -0.186145    0.059284
3
* Frequency(6) 1734.4837
O    -3.958007   -0.040173    0.012794   -0.100659    0.095552   -0.030432
H    -2.920884   -0.407048    0.129637    0.200618   -1.330459    0.423726
H    -3.569097   -1.026999    0.327080    1.397045   -0.186145    0.059284
3
* Frequency(6) 1734.4837
O    -3.955160   -0.042875    0.013655   -0.100659    0.095552   -0.030432
H    -2.926559   -0.369417    0.117653    0.200618   -1.330459    0.423726
H    -3.608611   -1.021734    0.325403    1.397045   -0.186145    0.059284
3
* Frequency(6) 1734.4837
O    -3.948817   -0.048897    0.015573   -0.100659    0.095552   -0.030432
H    -2.939201   -0.285575    0.090950    0.200618   -1.330459    0.423726
H    -3.696649   -1.010004    0.321667    1.397045   -0.186145    0.059284
3
* Frequency(6) 1734.4837
O    -3.939665   -0.057584    0.018340   -0.100659    0.095552   -0.030432
H    -2.957442   -0.164608    0.052425    0.200618   -1.330459    0.423726
H    -3.823670   -0.993079    0.316277    1.397045   -0.186145    0.059284
3
* Frequency(6) 1734.4837
O    -3.928696   -0.067997    0.021656   -0.100659    0.095552   -0.030432
H    -2.979304   -0.019623    0.006250    0.200618   -1.330459    0.423726
H    -3.975911   -0.972794    0.309817    1.397045   -0.186145    0.059284
3
* Frequency(6) 1734.4837
O    -3.917098   -0.079006    0.025162   -0.100659    0.095552   -0.030432
H    -3.002418    0.133667   -0.042571    0.200618   -1.330459    0.423726
H    -4.136874   -0.951347    0.302986    1.397045   -0.186145    0.059284
3
* Frequency(6) 1734.4837
O    -3.906129   -0.089419    0.028478   -0.100659    0.095552   -0.030432
H    -3.024280    0.278652   -0.088745    0.200618   -1.330459    0.423726
H    -4.289114   -0.931062    0.296526    1.397045   -0.186145    0.059284
3
* Frequency(6) 1734.4837
O    -3.896977   -0.098107    0.031245   -0.100659    0.095552   -0.030432
H    -3.042521    0.399620   -0.127271    0.200618   -1.330459    0.423726
H    -4.416136   -0.914137    0.291136    1.397045   -0.186145    0.059284
3
* Frequency(6) 1734.4837
O    -3.890633   -0.104128    0.033163   -0.100659    0.095552   -0.030432
H    -3.055163    0.483462   -0.153974    0.200618   -1.330459    0.423726
H    -4.504174   -0.902407    0.287400    1.397045   -0.186145    0.059284
3
* Frequency(6) 1734.4837
O    -3.887786   -0.106831    0.034024   -0.100659    0.095552   -0.030432
H    -3.060837    0.521092   -0.165958    0.200618   -1.330459    0.423726
H    -4.543688   -0.897142    0.285723    1.397045   -0.186145    0.059284
3
* Frequency(6) 1734.4837
O    -3.888744   -0.105921    0.033734   -0.100659    0.095552   -0.030432
H    -3.058929    0.508434   -0.161927    0.200618   -1.330459    0.423726
H    -4.530396   -0.898913    0.286287    1.397045   -0.186145    0.059284
3
* Frequency(6) 1734.4837
O    -3.893403   -0.101499    0.032326   -0.100659    0.095552   -0.030432
H    -3.049644    0.446857   -0.142316    0.200618   -1.330459    0.423726
H    -4.465738   -0.907528    0.289031    1.397045   -0.186145    0.059284
3
* Frequency(6) 1734.4837
O    -3.901258   -0.094043    0.029951   -0.100659    0.095552   -0.030432
H    -3.033989    0.343037   -0.109251    0.200618   -1.330459    0.423726
H    -4.356721   -0.922054    0.293657    1.397045   -0.186145    0.059284
3
* Frequency(6) 1734.4837
O    -3.911457   -0.084361    0.026867   -0.100659    0.095552   -0.030432
H    -3.013660    0.208222   -0.066315    0.200618   -1.330459    0.423726
H    -4.215159   -0.940916    0.299664    1.397045   -0.186145    0.059284
3
* Frequency(6) 1734.4837
O    -3.922897   -0.073502    0.023409   -0.100659    0.095552   -0.030432
H    -2.990861    0.057022   -0.018160    0.200618   -1.330459    0.423726
H    -4.056392   -0.962071    0.306402    1.397045   -0.186145    0.059284
